   4   4   1   0
  0.2166857E+02  0.4061635E-09  0.4061635E-09  0.5253981E-09  0.5000000E-15
  1.000000000000000E-004
  CAR 
 LiAu                                    
     11.67023905     -9.69655632  301      4.66467180      1.00000000
     -9.697  0.0000E+00  0.0000E+00  0.0000E+00  0.0000E+00
     -9.625  0.0000E+00  0.0000E+00  0.0000E+00  0.0000E+00
     -9.554  0.0000E+00  0.0000E+00  0.0000E+00  0.0000E+00
     -9.483  0.0000E+00  0.0000E+00  0.0000E+00  0.0000E+00
     -9.412  0.0000E+00  0.0000E+00  0.0000E+00  0.0000E+00
     -9.340  0.0000E+00  0.0000E+00  0.0000E+00  0.0000E+00
     -9.269  0.0000E+00  0.0000E+00  0.0000E+00  0.0000E+00
     -9.198  0.0000E+00  0.0000E+00  0.0000E+00  0.0000E+00
     -9.127  0.0000E+00  0.0000E+00  0.0000E+00  0.0000E+00
     -9.056  0.0000E+00  0.0000E+00  0.0000E+00  0.0000E+00
     -8.984  0.0000E+00  0.0000E+00  0.0000E+00  0.0000E+00
     -8.913  0.0000E+00  0.0000E+00  0.0000E+00  0.0000E+00
     -8.842  0.2249E-17  0.2249E-17  0.1602E-18  0.1602E-18
     -8.771  0.1369E-04  0.1369E-04  0.9750E-06  0.9748E-06
     -8.699  0.2067E-01  0.2067E-01  0.1473E-02  0.1473E-02
     -8.628  0.1048E+00  0.1048E+00  0.8934E-02  0.8934E-02
     -8.557  0.2144E+00  0.2144E+00  0.2421E-01  0.2421E-01
     -8.486  0.2322E+00  0.2322E+00  0.4074E-01  0.4074E-01
     -8.415  0.1753E+00  0.1753E+00  0.5323E-01  0.5323E-01
     -8.343  0.2820E+00  0.2820E+00  0.7331E-01  0.7331E-01
     -8.272  0.3884E+00  0.3884E+00  0.1010E+00  0.1010E+00
     -8.201  0.3510E+00  0.3510E+00  0.1260E+00  0.1260E+00
     -8.130  0.3356E+00  0.3356E+00  0.1499E+00  0.1499E+00
     -8.058  0.4509E+00  0.4509E+00  0.1820E+00  0.1820E+00
     -7.987  0.3048E+00  0.3048E+00  0.2037E+00  0.2037E+00
     -7.916  0.3587E+00  0.3587E+00  0.2292E+00  0.2292E+00
     -7.845  0.8787E+00  0.8787E+00  0.2918E+00  0.2918E+00
     -7.774  0.5125E+00  0.5125E+00  0.3283E+00  0.3283E+00
     -7.702  0.2796E+00  0.2796E+00  0.3482E+00  0.3482E+00
     -7.631  0.7409E+00  0.7409E+00  0.4010E+00  0.4010E+00
     -7.560  0.6609E+00  0.6609E+00  0.4481E+00  0.4481E+00
     -7.489  0.5563E+00  0.5563E+00  0.4877E+00  0.4877E+00
     -7.417  0.6664E+00  0.6664E+00  0.5352E+00  0.5352E+00
     -7.346  0.8308E+00  0.8308E+00  0.5943E+00  0.5943E+00
     -7.275  0.9071E+00  0.9071E+00  0.6590E+00  0.6590E+00
     -7.204  0.1121E+01  0.1121E+01  0.7388E+00  0.7388E+00
     -7.133  0.7785E+00  0.7785E+00  0.7943E+00  0.7943E+00
     -7.061  0.8999E+00  0.8999E+00  0.8583E+00  0.8583E+00
     -6.990  0.1274E+01  0.1274E+01  0.9491E+00  0.9491E+00
     -6.919  0.1292E+01  0.1292E+01  0.1041E+01  0.1041E+01
     -6.848  0.2487E+01  0.2487E+01  0.1218E+01  0.1218E+01
     -6.776  0.1913E+01  0.1913E+01  0.1355E+01  0.1355E+01
     -6.705  0.1353E+01  0.1353E+01  0.1451E+01  0.1451E+01
     -6.634  0.1238E+01  0.1238E+01  0.1539E+01  0.1539E+01
     -6.563  0.2197E+01  0.2197E+01  0.1696E+01  0.1696E+01
     -6.492  0.1498E+01  0.1498E+01  0.1802E+01  0.1802E+01
     -6.420  0.6039E+00  0.6039E+00  0.1845E+01  0.1845E+01
     -6.349  0.6006E-01  0.6006E-01  0.1850E+01  0.1850E+01
     -6.278  0.2257E+00  0.2257E+00  0.1866E+01  0.1866E+01
     -6.207  0.2667E+00  0.2667E+00  0.1885E+01  0.1885E+01
     -6.135  0.3106E+00  0.3106E+00  0.1907E+01  0.1907E+01
     -6.064  0.3931E+00  0.3931E+00  0.1935E+01  0.1935E+01
     -5.993  0.2725E+00  0.2725E+00  0.1954E+01  0.1954E+01
     -5.922  0.3394E+00  0.3394E+00  0.1978E+01  0.1978E+01
     -5.851  0.8153E-01  0.8153E-01  0.1984E+01  0.1984E+01
     -5.779  0.4042E-01  0.4042E-01  0.1987E+01  0.1987E+01
     -5.708  0.3950E-01  0.3950E-01  0.1990E+01  0.1990E+01
     -5.637  0.7706E-01  0.7706E-01  0.1995E+01  0.1995E+01
     -5.566  0.4765E-01  0.4765E-01  0.1999E+01  0.1999E+01
     -5.494  0.1823E-01  0.1823E-01  0.2000E+01  0.2000E+01
     -5.423  0.1734E-05  0.1733E-05  0.2000E+01  0.2000E+01
     -5.352  0.0000E+00  0.0000E+00  0.2000E+01  0.2000E+01
     -5.281  0.0000E+00  0.0000E+00  0.2000E+01  0.2000E+01
     -5.210  0.0000E+00  0.0000E+00  0.2000E+01  0.2000E+01
     -5.138  0.0000E+00  0.0000E+00  0.2000E+01  0.2000E+01
     -5.067  0.0000E+00  0.0000E+00  0.2000E+01  0.2000E+01
     -4.996  0.0000E+00  0.0000E+00  0.2000E+01  0.2000E+01
     -4.925  0.0000E+00  0.0000E+00  0.2000E+01  0.2000E+01
     -4.853  0.0000E+00  0.0000E+00  0.2000E+01  0.2000E+01
     -4.782  0.0000E+00  0.0000E+00  0.2000E+01  0.2000E+01
     -4.711  0.4688E-08  0.4691E-08  0.2000E+01  0.2000E+01
     -4.640  0.1009E-01  0.1009E-01  0.2001E+01  0.2001E+01
     -4.569  0.4697E-01  0.4697E-01  0.2004E+01  0.2004E+01
     -4.497  0.7409E-01  0.7409E-01  0.2009E+01  0.2009E+01
     -4.426  0.9833E-01  0.9832E-01  0.2016E+01  0.2016E+01
     -4.355  0.4098E+00  0.4098E+00  0.2046E+01  0.2046E+01
     -4.284  0.1032E+01  0.1032E+01  0.2119E+01  0.2119E+01
     -4.212  0.1457E+01  0.1457E+01  0.2223E+01  0.2223E+01
     -4.141  0.1817E+01  0.1817E+01  0.2352E+01  0.2352E+01
     -4.070  0.1347E+01  0.1347E+01  0.2448E+01  0.2448E+01
     -3.999  0.1326E+01  0.1326E+01  0.2543E+01  0.2543E+01
     -3.928  0.1211E+01  0.1211E+01  0.2629E+01  0.2629E+01
     -3.856  0.1159E+01  0.1159E+01  0.2711E+01  0.2711E+01
     -3.785  0.1041E+01  0.1041E+01  0.2786E+01  0.2786E+01
     -3.714  0.1189E+01  0.1189E+01  0.2870E+01  0.2870E+01
     -3.643  0.1143E+01  0.1143E+01  0.2952E+01  0.2952E+01
     -3.571  0.6176E+00  0.6176E+00  0.2996E+01  0.2996E+01
     -3.500  0.8426E+00  0.8426E+00  0.3056E+01  0.3056E+01
     -3.429  0.5702E+00  0.5703E+00  0.3096E+01  0.3096E+01
     -3.358  0.9392E+00  0.9392E+00  0.3163E+01  0.3163E+01
     -3.287  0.7518E+00  0.7518E+00  0.3217E+01  0.3217E+01
     -3.215  0.3989E+00  0.3989E+00  0.3245E+01  0.3245E+01
     -3.144  0.8394E+00  0.8394E+00  0.3305E+01  0.3305E+01
     -3.073  0.3418E+00  0.3418E+00  0.3329E+01  0.3329E+01
     -3.002  0.9828E+00  0.9828E+00  0.3399E+01  0.3399E+01
     -2.930  0.5594E+00  0.5594E+00  0.3439E+01  0.3439E+01
     -2.859  0.3335E+00  0.3334E+00  0.3463E+01  0.3463E+01
     -2.788  0.4474E+00  0.4474E+00  0.3495E+01  0.3495E+01
     -2.717  0.5540E+00  0.5540E+00  0.3534E+01  0.3534E+01
     -2.646  0.7222E+00  0.7222E+00  0.3586E+01  0.3586E+01
     -2.574  0.2278E+00  0.2278E+00  0.3602E+01  0.3602E+01
     -2.503  0.3081E+00  0.3081E+00  0.3624E+01  0.3624E+01
     -2.432  0.5106E+00  0.5106E+00  0.3660E+01  0.3660E+01
     -2.361  0.6059E+00  0.6059E+00  0.3703E+01  0.3703E+01
     -2.289  0.4436E+00  0.4436E+00  0.3735E+01  0.3735E+01
     -2.218  0.4717E+00  0.4717E+00  0.3769E+01  0.3769E+01
     -2.147  0.1178E+00  0.1178E+00  0.3777E+01  0.3777E+01
     -2.076  0.7863E-01  0.7863E-01  0.3783E+01  0.3783E+01
     -2.005  0.1455E+00  0.1455E+00  0.3793E+01  0.3793E+01
     -1.933  0.3308E+00  0.3308E+00  0.3816E+01  0.3816E+01
     -1.862  0.1989E+00  0.1989E+00  0.3831E+01  0.3831E+01
     -1.791  0.3346E+00  0.3346E+00  0.3854E+01  0.3854E+01
     -1.720  0.2929E+00  0.2929E+00  0.3875E+01  0.3875E+01
     -1.648  0.1500E+00  0.1500E+00  0.3886E+01  0.3886E+01
     -1.577  0.3886E-01  0.3886E-01  0.3889E+01  0.3889E+01
     -1.506  0.2179E+00  0.2179E+00  0.3904E+01  0.3904E+01
     -1.435  0.1078E+00  0.1078E+00  0.3912E+01  0.3912E+01
     -1.364  0.3849E-01  0.3850E-01  0.3915E+01  0.3915E+01
     -1.292  0.2378E+00  0.2378E+00  0.3932E+01  0.3932E+01
     -1.221  0.7405E-01  0.7405E-01  0.3937E+01  0.3937E+01
     -1.150  0.9481E-01  0.9481E-01  0.3944E+01  0.3944E+01
     -1.079  0.6282E-03  0.6280E-03  0.3944E+01  0.3944E+01
     -1.007  0.9300E-01  0.9302E-01  0.3950E+01  0.3950E+01
     -0.936  0.1780E+00  0.1780E+00  0.3963E+01  0.3963E+01
     -0.865  0.1334E+00  0.1334E+00  0.3973E+01  0.3973E+01
     -0.794  0.2213E+00  0.2213E+00  0.3988E+01  0.3988E+01
     -0.723  0.2705E+00  0.2705E+00  0.4008E+01  0.4008E+01
     -0.651  0.2508E+00  0.2509E+00  0.4025E+01  0.4025E+01
     -0.580  0.3509E+00  0.3509E+00  0.4050E+01  0.4050E+01
     -0.509  0.4125E+00  0.4124E+00  0.4080E+01  0.4080E+01
     -0.438  0.8201E+00  0.8201E+00  0.4138E+01  0.4138E+01
     -0.366  0.5318E+00  0.5318E+00  0.4176E+01  0.4176E+01
     -0.295  0.9104E+00  0.9104E+00  0.4241E+01  0.4241E+01
     -0.224  0.7675E+00  0.7675E+00  0.4296E+01  0.4296E+01
     -0.153  0.5662E+00  0.5662E+00  0.4336E+01  0.4336E+01
     -0.081  0.7916E+00  0.7916E+00  0.4392E+01  0.4392E+01
     -0.010  0.1250E+01  0.1250E+01  0.4481E+01  0.4481E+01
      0.061  0.8840E+00  0.8840E+00  0.4544E+01  0.4544E+01
      0.132  0.9936E+00  0.9936E+00  0.4615E+01  0.4615E+01
      0.203  0.1243E+01  0.1243E+01  0.4704E+01  0.4704E+01
      0.275  0.7433E+00  0.7433E+00  0.4757E+01  0.4757E+01
      0.346  0.3973E+00  0.3973E+00  0.4785E+01  0.4785E+01
      0.417  0.5091E+00  0.5091E+00  0.4821E+01  0.4821E+01
      0.488  0.8058E+00  0.8057E+00  0.4878E+01  0.4878E+01
      0.560  0.8130E+00  0.8130E+00  0.4936E+01  0.4936E+01
      0.631  0.1320E+01  0.1320E+01  0.5030E+01  0.5030E+01
      0.702  0.1283E+01  0.1283E+01  0.5122E+01  0.5122E+01
      0.773  0.1334E+01  0.1334E+01  0.5217E+01  0.5217E+01
      0.844  0.1229E+01  0.1230E+01  0.5304E+01  0.5304E+01
      0.916  0.7560E+00  0.7560E+00  0.5358E+01  0.5358E+01
      0.987  0.1382E+01  0.1382E+01  0.5457E+01  0.5457E+01
      1.058  0.1220E+01  0.1220E+01  0.5543E+01  0.5543E+01
      1.129  0.1296E+01  0.1296E+01  0.5636E+01  0.5636E+01
      1.201  0.1164E+01  0.1164E+01  0.5719E+01  0.5719E+01
      1.272  0.1099E+01  0.1099E+01  0.5797E+01  0.5797E+01
      1.343  0.2026E+01  0.2026E+01  0.5941E+01  0.5941E+01
      1.414  0.1690E+01  0.1690E+01  0.6062E+01  0.6062E+01
      1.485  0.1105E+01  0.1105E+01  0.6140E+01  0.6140E+01
      1.557  0.1195E+01  0.1195E+01  0.6225E+01  0.6225E+01
      1.628  0.6572E+00  0.6572E+00  0.6272E+01  0.6272E+01
      1.699  0.1298E+01  0.1298E+01  0.6365E+01  0.6365E+01
      1.770  0.1279E+01  0.1279E+01  0.6456E+01  0.6456E+01
      1.842  0.1681E+01  0.1681E+01  0.6575E+01  0.6575E+01
      1.913  0.1212E+01  0.1212E+01  0.6662E+01  0.6662E+01
      1.984  0.1642E+01  0.1642E+01  0.6779E+01  0.6779E+01
      2.055  0.1222E+01  0.1222E+01  0.6866E+01  0.6866E+01
      2.126  0.1327E+01  0.1327E+01  0.6960E+01  0.6960E+01
      2.198  0.1568E+01  0.1568E+01  0.7072E+01  0.7072E+01
      2.269  0.1438E+01  0.1438E+01  0.7174E+01  0.7174E+01
      2.340  0.1576E+01  0.1576E+01  0.7287E+01  0.7287E+01
      2.411  0.1253E+01  0.1252E+01  0.7376E+01  0.7376E+01
      2.483  0.1189E+01  0.1189E+01  0.7460E+01  0.7460E+01
      2.554  0.1758E+01  0.1758E+01  0.7586E+01  0.7586E+01
      2.625  0.1545E+01  0.1545E+01  0.7696E+01  0.7696E+01
      2.696  0.1836E+01  0.1836E+01  0.7826E+01  0.7826E+01
      2.767  0.1492E+01  0.1492E+01  0.7933E+01  0.7933E+01
      2.839  0.1086E+01  0.1086E+01  0.8010E+01  0.8010E+01
      2.910  0.9987E+00  0.9987E+00  0.8081E+01  0.8081E+01
      2.981  0.1988E+01  0.1988E+01  0.8223E+01  0.8223E+01
      3.052  0.1835E+01  0.1835E+01  0.8353E+01  0.8353E+01
      3.124  0.1535E+01  0.1535E+01  0.8463E+01  0.8463E+01
      3.195  0.6220E+00  0.6220E+00  0.8507E+01  0.8507E+01
      3.266  0.1731E+01  0.1731E+01  0.8630E+01  0.8630E+01
      3.337  0.1978E+01  0.1978E+01  0.8771E+01  0.8771E+01
      3.408  0.2605E+01  0.2605E+01  0.8957E+01  0.8957E+01
      3.480  0.1699E+01  0.1699E+01  0.9078E+01  0.9078E+01
      3.551  0.6949E+00  0.6949E+00  0.9127E+01  0.9127E+01
      3.622  0.1335E+01  0.1335E+01  0.9222E+01  0.9222E+01
      3.693  0.1853E+01  0.1853E+01  0.9354E+01  0.9354E+01
      3.765  0.2062E+01  0.2062E+01  0.9501E+01  0.9501E+01
      3.836  0.1262E+01  0.1262E+01  0.9591E+01  0.9591E+01
      3.907  0.7367E+00  0.7367E+00  0.9644E+01  0.9644E+01
      3.978  0.8891E+00  0.8891E+00  0.9707E+01  0.9707E+01
      4.049  0.9940E+00  0.9940E+00  0.9778E+01  0.9778E+01
      4.121  0.7313E+00  0.7312E+00  0.9830E+01  0.9830E+01
      4.192  0.6804E+00  0.6804E+00  0.9878E+01  0.9878E+01
      4.263  0.3371E+00  0.3371E+00  0.9902E+01  0.9902E+01
      4.334  0.2005E+00  0.2005E+00  0.9917E+01  0.9917E+01
      4.406  0.1922E+00  0.1922E+00  0.9930E+01  0.9930E+01
      4.477  0.3180E+00  0.3180E+00  0.9953E+01  0.9953E+01
      4.548  0.3240E+00  0.3240E+00  0.9976E+01  0.9976E+01
      4.619  0.7025E-01  0.7025E-01  0.9981E+01  0.9981E+01
      4.690  0.3091E+00  0.3091E+00  0.1000E+02  0.1000E+02
      4.762  0.1842E+00  0.1842E+00  0.1002E+02  0.1002E+02
      4.833  0.3463E+00  0.3463E+00  0.1004E+02  0.1004E+02
      4.904  0.2527E+00  0.2527E+00  0.1006E+02  0.1006E+02
      4.975  0.4242E+00  0.4242E+00  0.1009E+02  0.1009E+02
      5.047  0.4149E+00  0.4149E+00  0.1012E+02  0.1012E+02
      5.118  0.6835E+00  0.6835E+00  0.1017E+02  0.1017E+02
      5.189  0.7395E+00  0.7395E+00  0.1022E+02  0.1022E+02
      5.260  0.1406E+01  0.1406E+01  0.1032E+02  0.1032E+02
      5.331  0.1123E+01  0.1123E+01  0.1040E+02  0.1040E+02
      5.403  0.1020E+01  0.1020E+01  0.1047E+02  0.1047E+02
      5.474  0.1559E+01  0.1559E+01  0.1058E+02  0.1058E+02
      5.545  0.2275E+01  0.2275E+01  0.1075E+02  0.1075E+02
      5.616  0.8164E+00  0.8164E+00  0.1080E+02  0.1080E+02
      5.688  0.1652E+01  0.1652E+01  0.1092E+02  0.1092E+02
      5.759  0.1235E+01  0.1235E+01  0.1101E+02  0.1101E+02
      5.830  0.9674E+00  0.9674E+00  0.1108E+02  0.1108E+02
      5.901  0.1247E+01  0.1247E+01  0.1117E+02  0.1117E+02
      5.972  0.1141E+01  0.1141E+01  0.1125E+02  0.1125E+02
      6.044  0.1485E+01  0.1485E+01  0.1135E+02  0.1135E+02
      6.115  0.1768E+01  0.1768E+01  0.1148E+02  0.1148E+02
      6.186  0.2197E+01  0.2197E+01  0.1164E+02  0.1164E+02
      6.257  0.9853E+00  0.9853E+00  0.1171E+02  0.1171E+02
      6.329  0.5658E+00  0.5658E+00  0.1175E+02  0.1175E+02
      6.400  0.9799E+00  0.9799E+00  0.1182E+02  0.1182E+02
      6.471  0.9482E+00  0.9482E+00  0.1188E+02  0.1188E+02
      6.542  0.8743E+00  0.8743E+00  0.1195E+02  0.1195E+02
      6.613  0.7904E+00  0.7904E+00  0.1200E+02  0.1200E+02
      6.685  0.6222E+00  0.6222E+00  0.1205E+02  0.1205E+02
      6.756  0.8887E+00  0.8887E+00  0.1211E+02  0.1211E+02
      6.827  0.1147E+01  0.1147E+01  0.1219E+02  0.1219E+02
      6.898  0.1160E+01  0.1160E+01  0.1228E+02  0.1228E+02
      6.970  0.1592E+01  0.1592E+01  0.1239E+02  0.1239E+02
      7.041  0.1097E+01  0.1097E+01  0.1247E+02  0.1247E+02
      7.112  0.8347E+00  0.8347E+00  0.1253E+02  0.1253E+02
      7.183  0.1098E+01  0.1098E+01  0.1260E+02  0.1260E+02
      7.254  0.1721E+01  0.1721E+01  0.1273E+02  0.1273E+02
      7.326  0.3309E+00  0.3310E+00  0.1275E+02  0.1275E+02
      7.397  0.1035E+01  0.1035E+01  0.1282E+02  0.1282E+02
      7.468  0.1443E+01  0.1443E+01  0.1293E+02  0.1293E+02
      7.539  0.1694E+01  0.1694E+01  0.1305E+02  0.1305E+02
      7.611  0.1349E+01  0.1349E+01  0.1314E+02  0.1314E+02
      7.682  0.1537E+01  0.1537E+01  0.1325E+02  0.1325E+02
      7.753  0.1082E+01  0.1082E+01  0.1333E+02  0.1333E+02
      7.824  0.1122E+01  0.1122E+01  0.1341E+02  0.1341E+02
      7.895  0.5937E+00  0.5937E+00  0.1345E+02  0.1345E+02
      7.967  0.1105E+01  0.1105E+01  0.1353E+02  0.1353E+02
      8.038  0.1227E+01  0.1227E+01  0.1362E+02  0.1362E+02
      8.109  0.7281E+00  0.7281E+00  0.1367E+02  0.1367E+02
      8.180  0.1555E+01  0.1555E+01  0.1378E+02  0.1378E+02
      8.252  0.1019E+01  0.1019E+01  0.1385E+02  0.1385E+02
      8.323  0.1277E+01  0.1277E+01  0.1394E+02  0.1394E+02
      8.394  0.1027E+01  0.1027E+01  0.1402E+02  0.1402E+02
      8.465  0.1050E+01  0.1050E+01  0.1409E+02  0.1409E+02
      8.536  0.1141E+01  0.1141E+01  0.1417E+02  0.1417E+02
      8.608  0.1089E+01  0.1090E+01  0.1425E+02  0.1425E+02
      8.679  0.7941E+00  0.7940E+00  0.1431E+02  0.1431E+02
      8.750  0.6597E+00  0.6598E+00  0.1435E+02  0.1435E+02
      8.821  0.9406E+00  0.9406E+00  0.1442E+02  0.1442E+02
      8.893  0.1115E+01  0.1115E+01  0.1450E+02  0.1450E+02
      8.964  0.1024E+01  0.1024E+01  0.1457E+02  0.1457E+02
      9.035  0.9326E+00  0.9326E+00  0.1464E+02  0.1464E+02
      9.106  0.9445E+00  0.9445E+00  0.1471E+02  0.1471E+02
      9.177  0.5066E+00  0.5066E+00  0.1474E+02  0.1474E+02
      9.249  0.6598E+00  0.6598E+00  0.1479E+02  0.1479E+02
      9.320  0.9062E+00  0.9062E+00  0.1486E+02  0.1486E+02
      9.391  0.1021E+01  0.1021E+01  0.1493E+02  0.1493E+02
      9.462  0.5472E+00  0.5472E+00  0.1497E+02  0.1497E+02
      9.534  0.1551E+01  0.1551E+01  0.1508E+02  0.1508E+02
      9.605  0.1703E+01  0.1703E+01  0.1520E+02  0.1520E+02
      9.676  0.1613E+01  0.1613E+01  0.1531E+02  0.1531E+02
      9.747  0.1410E+01  0.1409E+01  0.1541E+02  0.1541E+02
      9.818  0.1047E+01  0.1047E+01  0.1549E+02  0.1549E+02
      9.890  0.9647E+00  0.9648E+00  0.1556E+02  0.1556E+02
      9.961  0.5541E+00  0.5540E+00  0.1560E+02  0.1560E+02
     10.032  0.9038E+00  0.9039E+00  0.1566E+02  0.1566E+02
     10.103  0.7470E+00  0.7470E+00  0.1571E+02  0.1571E+02
     10.175  0.6176E+00  0.6176E+00  0.1576E+02  0.1576E+02
     10.246  0.4253E+00  0.4253E+00  0.1579E+02  0.1579E+02
     10.317  0.6562E+00  0.6562E+00  0.1584E+02  0.1584E+02
     10.388  0.5351E+00  0.5353E+00  0.1587E+02  0.1587E+02
     10.459  0.6608E+00  0.6606E+00  0.1592E+02  0.1592E+02
     10.531  0.3901E+00  0.3925E+00  0.1595E+02  0.1595E+02
     10.602  0.3767E+00  0.3758E+00  0.1598E+02  0.1598E+02
     10.673  0.1505E+00  0.1507E+00  0.1599E+02  0.1599E+02
     10.744  0.1953E+00  0.1938E+00  0.1600E+02  0.1600E+02
     10.816  0.1098E-03  0.7117E-04  0.1600E+02  0.1600E+02
     10.887  0.0000E+00  0.0000E+00  0.1600E+02  0.1600E+02
     10.958  0.0000E+00  0.0000E+00  0.1600E+02  0.1600E+02
     11.029  0.0000E+00  0.0000E+00  0.1600E+02  0.1600E+02
     11.100  0.0000E+00  0.0000E+00  0.1600E+02  0.1600E+02
     11.172  0.0000E+00  0.0000E+00  0.1600E+02  0.1600E+02
     11.243  0.0000E+00  0.0000E+00  0.1600E+02  0.1600E+02
     11.314  0.0000E+00  0.0000E+00  0.1600E+02  0.1600E+02
     11.385  0.0000E+00  0.0000E+00  0.1600E+02  0.1600E+02
     11.457  0.0000E+00  0.0000E+00  0.1600E+02  0.1600E+02
     11.528  0.0000E+00  0.0000E+00  0.1600E+02  0.1600E+02
     11.599  0.0000E+00  0.0000E+00  0.1600E+02  0.1600E+02
     11.670  0.0000E+00  0.0000E+00  0.1600E+02  0.1600E+02
     11.67023905     -9.69655632  301      4.66467180      1.00000000
     -9.697  0.0000E+00  0.0000E+00  0.0000E+00  0.0000E+00  0.0000E+00  0.0000E+00  0.0000E+00  0.0000E+00  0.0000E+00  0.0000E+00  0.0000E+00  0.0000E+00  0.0000E+00  0.0000E+00  0.0000E+00  0.0000E+00  0.0000E+00  0.0000E+00
     -9.625  0.0000E+00  0.0000E+00  0.0000E+00  0.0000E+00  0.0000E+00  0.0000E+00  0.0000E+00  0.0000E+00  0.0000E+00  0.0000E+00  0.0000E+00  0.0000E+00  0.0000E+00  0.0000E+00  0.0000E+00  0.0000E+00  0.0000E+00  0.0000E+00
     -9.554  0.0000E+00  0.0000E+00  0.0000E+00  0.0000E+00  0.0000E+00  0.0000E+00  0.0000E+00  0.0000E+00  0.0000E+00  0.0000E+00  0.0000E+00  0.0000E+00  0.0000E+00  0.0000E+00  0.0000E+00  0.0000E+00  0.0000E+00  0.0000E+00
     -9.483  0.0000E+00  0.0000E+00  0.0000E+00  0.0000E+00  0.0000E+00  0.0000E+00  0.0000E+00  0.0000E+00  0.0000E+00  0.0000E+00  0.0000E+00  0.0000E+00  0.0000E+00  0.0000E+00  0.0000E+00  0.0000E+00  0.0000E+00  0.0000E+00
     -9.412  0.0000E+00  0.0000E+00  0.0000E+00  0.0000E+00  0.0000E+00  0.0000E+00  0.0000E+00  0.0000E+00  0.0000E+00  0.0000E+00  0.0000E+00  0.0000E+00  0.0000E+00  0.0000E+00  0.0000E+00  0.0000E+00  0.0000E+00  0.0000E+00
     -9.340  0.0000E+00  0.0000E+00  0.0000E+00  0.0000E+00  0.0000E+00  0.0000E+00  0.0000E+00  0.0000E+00  0.0000E+00  0.0000E+00  0.0000E+00  0.0000E+00  0.0000E+00  0.0000E+00  0.0000E+00  0.0000E+00  0.0000E+00  0.0000E+00
     -9.269  0.0000E+00  0.0000E+00  0.0000E+00  0.0000E+00  0.0000E+00  0.0000E+00  0.0000E+00  0.0000E+00  0.0000E+00  0.0000E+00  0.0000E+00  0.0000E+00  0.0000E+00  0.0000E+00  0.0000E+00  0.0000E+00  0.0000E+00  0.0000E+00
     -9.198  0.0000E+00  0.0000E+00  0.0000E+00  0.0000E+00  0.0000E+00  0.0000E+00  0.0000E+00  0.0000E+00  0.0000E+00  0.0000E+00  0.0000E+00  0.0000E+00  0.0000E+00  0.0000E+00  0.0000E+00  0.0000E+00  0.0000E+00  0.0000E+00
     -9.127  0.0000E+00  0.0000E+00  0.0000E+00  0.0000E+00  0.0000E+00  0.0000E+00  0.0000E+00  0.0000E+00  0.0000E+00  0.0000E+00  0.0000E+00  0.0000E+00  0.0000E+00  0.0000E+00  0.0000E+00  0.0000E+00  0.0000E+00  0.0000E+00
     -9.056  0.0000E+00  0.0000E+00  0.0000E+00  0.0000E+00  0.0000E+00  0.0000E+00  0.0000E+00  0.0000E+00  0.0000E+00  0.0000E+00  0.0000E+00  0.0000E+00  0.0000E+00  0.0000E+00  0.0000E+00  0.0000E+00  0.0000E+00  0.0000E+00
     -8.984  0.0000E+00  0.0000E+00  0.0000E+00  0.0000E+00  0.0000E+00  0.0000E+00  0.0000E+00  0.0000E+00  0.0000E+00  0.0000E+00  0.0000E+00  0.0000E+00  0.0000E+00  0.0000E+00  0.0000E+00  0.0000E+00  0.0000E+00  0.0000E+00
     -8.913  0.0000E+00  0.0000E+00  0.0000E+00  0.0000E+00  0.0000E+00  0.0000E+00  0.0000E+00  0.0000E+00  0.0000E+00  0.0000E+00  0.0000E+00  0.0000E+00  0.0000E+00  0.0000E+00  0.0000E+00  0.0000E+00  0.0000E+00  0.0000E+00
     -8.842  0.2665E-18  0.2665E-18  0.7410E-37  0.7830E-37  0.5861E-20  0.5861E-20  0.7987E-37  0.7854E-37  0.0000E+00  0.0000E+00  0.0000E+00  0.0000E+00  0.0000E+00  0.0000E+00  0.0000E+00  0.0000E+00  0.0000E+00  0.0000E+00
     -8.771  0.1622E-05  0.1621E-05  0.1018E-16  0.1017E-16  0.3567E-07  0.3566E-07  0.4860E-24  0.4779E-24  0.0000E+00  0.0000E+00  0.0000E+00  0.0000E+00  0.0000E+00  0.0000E+00  0.0000E+00  0.0000E+00  0.0000E+00  0.0000E+00
     -8.699  0.2449E-02  0.2449E-02  0.1640E-06  0.1640E-06  0.5393E-04  0.5393E-04  0.7216E-09  0.7214E-09  0.0000E+00  0.0000E+00  0.0000E+00  0.0000E+00  0.0000E+00  0.0000E+00  0.0000E+00  0.0000E+00  0.0000E+00  0.0000E+00
     -8.628  0.1242E-01  0.1242E-01  0.5979E-05  0.5979E-05  0.2951E-03  0.2951E-03  0.8192E-05  0.8192E-05  0.0000E+00  0.0000E+00  0.0000E+00  0.0000E+00  0.0000E+00  0.0000E+00  0.0000E+00  0.0000E+00  0.0000E+00  0.0000E+00
     -8.557  0.2544E-01  0.2544E-01  0.2297E-04  0.2297E-04  0.6560E-03  0.6560E-03  0.2674E-04  0.2674E-04  0.0000E+00  0.0000E+00  0.0000E+00  0.0000E+00  0.0000E+00  0.0000E+00  0.0000E+00  0.0000E+00  0.0000E+00  0.0000E+00
     -8.486  0.2757E-01  0.2757E-01  0.4410E-04  0.4410E-04  0.7558E-03  0.7558E-03  0.4060E-04  0.4060E-04  0.0000E+00  0.0000E+00  0.0000E+00  0.0000E+00  0.0000E+00  0.0000E+00  0.0000E+00  0.0000E+00  0.0000E+00  0.0000E+00
     -8.415  0.2090E-01  0.2090E-01  0.8179E-04  0.8179E-04  0.5621E-03  0.5621E-03  0.3286E-04  0.3286E-04  0.0000E+00  0.0000E+00  0.0000E+00  0.0000E+00  0.0000E+00  0.0000E+00  0.0000E+00  0.0000E+00  0.0000E+00  0.0000E+00
     -8.343  0.3361E-01  0.3361E-01  0.8332E-04  0.8332E-04  0.1010E-02  0.1010E-02  0.1088E-03  0.1088E-03  0.0000E+00  0.0000E+00  0.0000E+00  0.0000E+00  0.0000E+00  0.0000E+00  0.0000E+00  0.0000E+00  0.0000E+00  0.0000E+00
     -8.272  0.4619E-01  0.4619E-01  0.5700E-04  0.5700E-04  0.1607E-02  0.1607E-02  0.1711E-03  0.1711E-03  0.0000E+00  0.0000E+00  0.0000E+00  0.0000E+00  0.0000E+00  0.0000E+00  0.0000E+00  0.0000E+00  0.0000E+00  0.0000E+00
     -8.201  0.4186E-01  0.4186E-01  0.1218E-03  0.1218E-03  0.1474E-02  0.1474E-02  0.1375E-03  0.1375E-03  0.0000E+00  0.0000E+00  0.0000E+00  0.0000E+00  0.0000E+00  0.0000E+00  0.0000E+00  0.0000E+00  0.0000E+00  0.0000E+00
     -8.130  0.4022E-01  0.4022E-01  0.2688E-03  0.2688E-03  0.1375E-02  0.1375E-02  0.8465E-04  0.8465E-04  0.0000E+00  0.0000E+00  0.0000E+00  0.0000E+00  0.0000E+00  0.0000E+00  0.0000E+00  0.0000E+00  0.0000E+00  0.0000E+00
     -8.058  0.5397E-01  0.5397E-01  0.2925E-03  0.2925E-03  0.2083E-02  0.2083E-02  0.1564E-03  0.1564E-03  0.0000E+00  0.0000E+00  0.0000E+00  0.0000E+00  0.0000E+00  0.0000E+00  0.0000E+00  0.0000E+00  0.0000E+00  0.0000E+00
     -7.987  0.3660E-01  0.3660E-01  0.5215E-04  0.5215E-04  0.1441E-02  0.1441E-02  0.3120E-03  0.3120E-03  0.0000E+00  0.0000E+00  0.0000E+00  0.0000E+00  0.0000E+00  0.0000E+00  0.0000E+00  0.0000E+00  0.0000E+00  0.0000E+00
     -7.916  0.4327E-01  0.4326E-01  0.1771E-03  0.1771E-03  0.1692E-02  0.1692E-02  0.3273E-03  0.3273E-03  0.0000E+00  0.0000E+00  0.0000E+00  0.0000E+00  0.0000E+00  0.0000E+00  0.0000E+00  0.0000E+00  0.0000E+00  0.0000E+00
     -7.845  0.1058E+00  0.1058E+00  0.5885E-03  0.5885E-03  0.4699E-02  0.4699E-02  0.4878E-03  0.4878E-03  0.0000E+00  0.0000E+00  0.0000E+00  0.0000E+00  0.0000E+00  0.0000E+00  0.0000E+00  0.0000E+00  0.0000E+00  0.0000E+00
     -7.774  0.6180E-01  0.6180E-01  0.4096E-03  0.4096E-03  0.2904E-02  0.2904E-02  0.2430E-03  0.2430E-03  0.0000E+00  0.0000E+00  0.0000E+00  0.0000E+00  0.0000E+00  0.0000E+00  0.0000E+00  0.0000E+00  0.0000E+00  0.0000E+00
     -7.702  0.3372E-01  0.3372E-01  0.2060E-03  0.2060E-03  0.1683E-02  0.1683E-02  0.1760E-03  0.1760E-03  0.0000E+00  0.0000E+00  0.0000E+00  0.0000E+00  0.0000E+00  0.0000E+00  0.0000E+00  0.0000E+00  0.0000E+00  0.0000E+00
     -7.631  0.8977E-01  0.8977E-01  0.4010E-03  0.4010E-03  0.4722E-02  0.4722E-02  0.5519E-03  0.5519E-03  0.0000E+00  0.0000E+00  0.0000E+00  0.0000E+00  0.0000E+00  0.0000E+00  0.0000E+00  0.0000E+00  0.0000E+00  0.0000E+00
     -7.560  0.8084E-01  0.8084E-01  0.5559E-03  0.5559E-03  0.4055E-02  0.4055E-02  0.4494E-03  0.4494E-03  0.0000E+00  0.0000E+00  0.0000E+00  0.0000E+00  0.0000E+00  0.0000E+00  0.0000E+00  0.0000E+00  0.0000E+00  0.0000E+00
     -7.489  0.6781E-01  0.6781E-01  0.4571E-03  0.4572E-03  0.3688E-02  0.3688E-02  0.5043E-03  0.5043E-03  0.0000E+00  0.0000E+00  0.0000E+00  0.0000E+00  0.0000E+00  0.0000E+00  0.0000E+00  0.0000E+00  0.0000E+00  0.0000E+00
     -7.417  0.8178E-01  0.8179E-01  0.6036E-03  0.6036E-03  0.4299E-02  0.4299E-02  0.6957E-03  0.6957E-03  0.0000E+00  0.0000E+00  0.0000E+00  0.0000E+00  0.0000E+00  0.0000E+00  0.0000E+00  0.0000E+00  0.0000E+00  0.0000E+00
     -7.346  0.1032E+00  0.1032E+00  0.8228E-03  0.8228E-03  0.5441E-02  0.5441E-02  0.6568E-03  0.6568E-03  0.0000E+00  0.0000E+00  0.0000E+00  0.0000E+00  0.0000E+00  0.0000E+00  0.0000E+00  0.0000E+00  0.0000E+00  0.0000E+00
     -7.275  0.1114E+00  0.1114E+00  0.4469E-03  0.4469E-03  0.7257E-02  0.7257E-02  0.7795E-03  0.7795E-03  0.0000E+00  0.0000E+00  0.0000E+00  0.0000E+00  0.0000E+00  0.0000E+00  0.0000E+00  0.0000E+00  0.0000E+00  0.0000E+00
     -7.204  0.1385E+00  0.1385E+00  0.9837E-03  0.9837E-03  0.9155E-02  0.9155E-02  0.7779E-03  0.7779E-03  0.0000E+00  0.0000E+00  0.0000E+00  0.0000E+00  0.0000E+00  0.0000E+00  0.0000E+00  0.0000E+00  0.0000E+00  0.0000E+00
     -7.133  0.9665E-01  0.9665E-01  0.5235E-03  0.5235E-03  0.6657E-02  0.6657E-02  0.5523E-03  0.5523E-03  0.0000E+00  0.0000E+00  0.0000E+00  0.0000E+00  0.0000E+00  0.0000E+00  0.0000E+00  0.0000E+00  0.0000E+00  0.0000E+00
     -7.061  0.1129E+00  0.1129E+00  0.6361E-03  0.6361E-03  0.7934E-02  0.7934E-02  0.3978E-03  0.3978E-03  0.0000E+00  0.0000E+00  0.0000E+00  0.0000E+00  0.0000E+00  0.0000E+00  0.0000E+00  0.0000E+00  0.0000E+00  0.0000E+00
     -6.990  0.1599E+00  0.1599E+00  0.1060E-02  0.1060E-02  0.1163E-01  0.1163E-01  0.9417E-03  0.9417E-03  0.0000E+00  0.0000E+00  0.0000E+00  0.0000E+00  0.0000E+00  0.0000E+00  0.0000E+00  0.0000E+00  0.0000E+00  0.0000E+00
     -6.919  0.1635E+00  0.1635E+00  0.1109E-02  0.1109E-02  0.1139E-01  0.1139E-01  0.1335E-02  0.1335E-02  0.0000E+00  0.0000E+00  0.0000E+00  0.0000E+00  0.0000E+00  0.0000E+00  0.0000E+00  0.0000E+00  0.0000E+00  0.0000E+00
     -6.848  0.3178E+00  0.3178E+00  0.1890E-02  0.1890E-02  0.2381E-01  0.2381E-01  0.1713E-02  0.1713E-02  0.0000E+00  0.0000E+00  0.0000E+00  0.0000E+00  0.0000E+00  0.0000E+00  0.0000E+00  0.0000E+00  0.0000E+00  0.0000E+00
     -6.776  0.2473E+00  0.2473E+00  0.8045E-03  0.8045E-03  0.1863E-01  0.1863E-01  0.1510E-02  0.1510E-02  0.0000E+00  0.0000E+00  0.0000E+00  0.0000E+00  0.0000E+00  0.0000E+00  0.0000E+00  0.0000E+00  0.0000E+00  0.0000E+00
     -6.705  0.1755E+00  0.1755E+00  0.6309E-03  0.6309E-03  0.1480E-01  0.1480E-01  0.5931E-03  0.5931E-03  0.0000E+00  0.0000E+00  0.0000E+00  0.0000E+00  0.0000E+00  0.0000E+00  0.0000E+00  0.0000E+00  0.0000E+00  0.0000E+00
     -6.634  0.1612E+00  0.1612E+00  0.4811E-03  0.4811E-03  0.1393E-01  0.1393E-01  0.3169E-03  0.3169E-03  0.0000E+00  0.0000E+00  0.0000E+00  0.0000E+00  0.0000E+00  0.0000E+00  0.0000E+00  0.0000E+00  0.0000E+00  0.0000E+00
     -6.563  0.2828E+00  0.2828E+00  0.1612E-02  0.1612E-02  0.2569E-01  0.2569E-01  0.7069E-03  0.7070E-03  0.0000E+00  0.0000E+00  0.0000E+00  0.0000E+00  0.0000E+00  0.0000E+00  0.0000E+00  0.0000E+00  0.0000E+00  0.0000E+00
     -6.492  0.1916E+00  0.1916E+00  0.9390E-03  0.9390E-03  0.1829E-01  0.1829E-01  0.7608E-03  0.7608E-03  0.0000E+00  0.0000E+00  0.0000E+00  0.0000E+00  0.0000E+00  0.0000E+00  0.0000E+00  0.0000E+00  0.0000E+00  0.0000E+00
     -6.420  0.7864E-01  0.7864E-01  0.4500E-04  0.4499E-04  0.6521E-02  0.6521E-02  0.1166E-02  0.1166E-02  0.0000E+00  0.0000E+00  0.0000E+00  0.0000E+00  0.0000E+00  0.0000E+00  0.0000E+00  0.0000E+00  0.0000E+00  0.0000E+00
     -6.349  0.7838E-02  0.7837E-02  0.1384E-04  0.1384E-04  0.6412E-03  0.6411E-03  0.1195E-03  0.1195E-03  0.0000E+00  0.0000E+00  0.0000E+00  0.0000E+00  0.0000E+00  0.0000E+00  0.0000E+00  0.0000E+00  0.0000E+00  0.0000E+00
     -6.278  0.2989E-01  0.2989E-01  0.2163E-03  0.2163E-03  0.2649E-02  0.2649E-02  0.8121E-04  0.8121E-04  0.0000E+00  0.0000E+00  0.0000E+00  0.0000E+00  0.0000E+00  0.0000E+00  0.0000E+00  0.0000E+00  0.0000E+00  0.0000E+00
     -6.207  0.3475E-01  0.3475E-01  0.4054E-03  0.4054E-03  0.3465E-02  0.3465E-02  0.3335E-04  0.3335E-04  0.0000E+00  0.0000E+00  0.0000E+00  0.0000E+00  0.0000E+00  0.0000E+00  0.0000E+00  0.0000E+00  0.0000E+00  0.0000E+00
     -6.135  0.4069E-01  0.4069E-01  0.2840E-03  0.2840E-03  0.4131E-02  0.4131E-02  0.1825E-03  0.1825E-03  0.0000E+00  0.0000E+00  0.0000E+00  0.0000E+00  0.0000E+00  0.0000E+00  0.0000E+00  0.0000E+00  0.0000E+00  0.0000E+00