LiAu                                    
   1.00000000000000     
     4.061635    0.000000    0.000000
     0.000000    4.061635    0.000000
     0.000000    0.000000    5.253981
   P 
     4
Direct
  0.000000  0.000000  0.707837
  0.000000  0.000000  0.292163
  0.500000  0.500000  0.207837
  0.500000  0.500000  0.792163
 
   32   32   40
 0.10404     0.10099     0.92454E-01 0.80053E-01 0.65792E-01 0.51536E-01 0.38721E-01 0.28238E-01 0.20384E-01 0.14936E-01
 0.11371E-01 0.91294E-02 0.77730E-02 0.70104E-02 0.66457E-02 0.65183E-02 0.64946E-02 0.65183E-02 0.66457E-02 0.70104E-02
 0.77730E-02 0.91294E-02 0.11371E-01 0.14936E-01 0.20384E-01 0.28238E-01 0.38721E-01 0.51536E-01 0.65792E-01 0.80053E-01
 0.92454E-01 0.10099     0.10099     0.98065E-01 0.89854E-01 0.77841E-01 0.63954E-01 0.50066E-01 0.37643E-01 0.27566E-01
 0.20088E-01 0.14956E-01 0.11644E-01 0.96042E-02 0.84139E-02 0.77943E-02 0.75552E-02 0.75236E-02 0.75372E-02 0.75236E-02
 0.75552E-02 0.77943E-02 0.84139E-02 0.96042E-02 0.11644E-01 0.14956E-01 0.20088E-01 0.27566E-01 0.37643E-01 0.50066E-01
 0.63954E-01 0.77841E-01 0.89854E-01 0.98065E-01 0.92454E-01 0.89854E-01 0.82476E-01 0.71529E-01 0.58760E-01 0.46019E-01
 0.34785E-01 0.25868E-01 0.19422E-01 0.15145E-01 0.12540E-01 0.11119E-01 0.10502E-01 0.10434E-01 0.10713E-01 0.11087E-01
 0.11260E-01 0.11087E-01 0.10713E-01 0.10434E-01 0.10502E-01 0.11119E-01 0.12540E-01 0.15145E-01 0.19422E-01 0.25868E-01
 0.34785E-01 0.46019E-01 0.58760E-01 0.71529E-01 0.82476E-01 0.89854E-01 0.80053E-01 0.77841E-01 0.71529E-01 0.62112E-01
 0.51141E-01 0.40328E-01 0.31006E-01 0.23833E-01 0.18867E-01 0.15836E-01 0.14360E-01 0.14077E-01 0.14690E-01 0.15949E-01
 0.17547E-01 0.18966E-01 0.19549E-01 0.18966E-01 0.17547E-01 0.15949E-01 0.14690E-01 0.14077E-01 0.14360E-01 0.15836E-01
 0.18867E-01 0.23833E-01 0.31006E-01 0.40328E-01 0.51141E-01 0.62112E-01 0.71529E-01 0.77841E-01 0.65792E-01 0.63954E-01
 0.58760E-01 0.51141E-01 0.42465E-01 0.34140E-01 0.27192E-01 0.22100E-01 0.18926E-01 0.17544E-01 0.17794E-01 0.19525E-01
 0.22546E-01 0.26528E-01 0.30825E-01 0.34319E-01 0.35693E-01 0.34319E-01 0.30825E-01 0.26528E-01 0.22546E-01 0.19525E-01
 0.17794E-01 0.17544E-01 0.18926E-01 0.22100E-01 0.27192E-01 0.34140E-01 0.42465E-01 0.51141E-01 0.58760E-01 0.63954E-01
 0.51536E-01 0.50066E-01 0.46019E-01 0.40328E-01 0.34140E-01 0.28469E-01 0.24021E-01 0.21184E-01 0.20159E-01 0.21097E-01
 0.24177E-01 0.29519E-01 0.36962E-01 0.45804E-01 0.54614E-01 0.61317E-01 0.63849E-01 0.61317E-01 0.54614E-01 0.45804E-01
 0.36962E-01 0.29519E-01 0.24177E-01 0.21097E-01 0.20159E-01 0.21184E-01 0.24021E-01 0.28469E-01 0.34140E-01 0.40328E-01
 0.46019E-01 0.50066E-01 0.38721E-01 0.37643E-01 0.34785E-01 0.31006E-01 0.27192E-01 0.24021E-01 0.22014E-01 0.21636E-01
 0.23386E-01 0.27862E-01 0.35692E-01 0.47191E-01 0.61839E-01 0.77946E-01 0.92817E-01 0.10340     0.10725     0.10340    
 0.92817E-01 0.77946E-01 0.61839E-01 0.47191E-01 0.35692E-01 0.27862E-01 0.23386E-01 0.21636E-01 0.22014E-01 0.24021E-01
 0.27192E-01 0.31006E-01 0.34785E-01 0.37643E-01 0.28238E-01 0.27566E-01 0.25868E-01 0.23833E-01 0.22100E-01 0.21184E-01
 0.21636E-01 0.24197E-01 0.29872E-01 0.39883E-01 0.55256E-01 0.76030E-01 0.10054     0.12551     0.14698     0.16141    
 0.16649     0.16141     0.14698     0.12551     0.10054     0.76030E-01 0.55256E-01 0.39883E-01 0.29872E-01 0.24197E-01
 0.21636E-01 0.21184E-01 0.22100E-01 0.23833E-01 0.25868E-01 0.27566E-01 0.20384E-01 0.20088E-01 0.19422E-01 0.18867E-01
 0.18926E-01 0.20159E-01 0.23386E-01 0.29872E-01 0.41348E-01 0.59628E-01 0.85631E-01 0.11824     0.15398     0.18804    
 0.21577     0.23372     0.23992     0.23372     0.21577     0.18804     0.15398     0.11824     0.85631E-01 0.59628E-01
 0.41348E-01 0.29872E-01 0.23386E-01 0.20159E-01 0.18926E-01 0.18867E-01 0.19422E-01 0.20088E-01 0.14936E-01 0.14956E-01
 0.15145E-01 0.15836E-01 0.17544E-01 0.21097E-01 0.27862E-01 0.39883E-01 0.59628E-01 0.88992E-01 0.12784     0.17321    
 0.21999     0.26250     0.29599     0.31726     0.32453     0.31726     0.29599     0.26250     0.21999     0.17321    
 0.12784     0.88992E-01 0.59628E-01 0.39883E-01 0.27862E-01 0.21097E-01 0.17544E-01 0.15836E-01 0.15145E-01 0.14956E-01
 0.11371E-01 0.11644E-01 0.12540E-01 0.14360E-01 0.17794E-01 0.24177E-01 0.35692E-01 0.55256E-01 0.85631E-01 0.12784    
 0.17996     0.23737     0.29405     0.34409     0.38279     0.40708     0.41533     0.40708     0.38279     0.34409    
 0.29405     0.23737     0.17996     0.12784     0.85631E-01 0.55256E-01 0.35692E-01 0.24177E-01 0.17794E-01 0.14360E-01
 0.12540E-01 0.11644E-01 0.91294E-02 0.96042E-02 0.11119E-01 0.14077E-01 0.19525E-01 0.29519E-01 0.47191E-01 0.76030E-01
 0.11824     0.17321     0.23737     0.30515     0.37021     0.42652     0.46939     0.49599     0.50497     0.49599    
 0.46939     0.42652     0.37021     0.30515     0.23737     0.17321     0.11824     0.76030E-01 0.47191E-01 0.29519E-01
 0.19525E-01 0.14077E-01 0.11119E-01 0.96042E-02 0.77730E-02 0.84139E-02 0.10502E-01 0.14690E-01 0.22546E-01 0.36962E-01
 0.61839E-01 0.10054     0.15398     0.21999     0.29405     0.37021     0.44183     0.50267     0.54823     0.57610    
 0.58544     0.57610     0.54823     0.50267     0.44183     0.37021     0.29405     0.21999     0.15398     0.10054    
 0.61839E-01 0.36962E-01 0.22546E-01 0.14690E-01 0.10502E-01 0.84139E-02 0.70104E-02 0.77943E-02 0.10434E-01 0.15949E-01
 0.26528E-01 0.45804E-01 0.77946E-01 0.12551     0.18804     0.26250     0.34409     0.42652     0.50267     0.56621    
 0.61297     0.64119     0.65058     0.64119     0.61297     0.56621     0.50267     0.42652     0.34409     0.26250    
 0.18804     0.12551     0.77946E-01 0.45804E-01 0.26528E-01 0.15949E-01 0.10434E-01 0.77943E-02 0.66457E-02 0.75552E-02
 0.10713E-01 0.17547E-01 0.30825E-01 0.54614E-01 0.92817E-01 0.14698     0.21577     0.29599     0.38279     0.46939    
 0.54823     0.61297     0.65993     0.68798     0.69726     0.68798     0.65993     0.61297     0.54823     0.46939    
 0.38279     0.29599     0.21577     0.14698     0.92817E-01 0.54614E-01 0.30825E-01 0.17547E-01 0.10713E-01 0.75552E-02
 0.65183E-02 0.75236E-02 0.11087E-01 0.18966E-01 0.34319E-01 0.61317E-01 0.10340     0.16141     0.23372     0.31726    
 0.40708     0.49599     0.57610     0.64119     0.68798     0.71573     0.72488     0.71573     0.68798     0.64119    
 0.57610     0.49599     0.40708     0.31726     0.23372     0.16141     0.10340     0.61317E-01 0.34319E-01 0.18966E-01
 0.11087E-01 0.75236E-02 0.64946E-02 0.75372E-02 0.11260E-01 0.19549E-01 0.35693E-01 0.63849E-01 0.10725     0.16649    
 0.23992     0.32453     0.41533     0.50497     0.58544     0.65058     0.69726     0.72488     0.73397     0.72488    
 0.69726     0.65058     0.58544     0.50497     0.41533     0.32453     0.23992     0.16649     0.10725     0.63849E-01
 0.35693E-01 0.19549E-01 0.11260E-01 0.75372E-02 0.65183E-02 0.75236E-02 0.11087E-01 0.18966E-01 0.34319E-01 0.61317E-01
 0.10340     0.16141     0.23372     0.31726     0.40708     0.49599     0.57610     0.64119     0.68798     0.71573    
 0.72488     0.71573     0.68798     0.64119     0.57610     0.49599     0.40708     0.31726     0.23372     0.16141    
 0.10340     0.61317E-01 0.34319E-01 0.18966E-01 0.11087E-01 0.75236E-02 0.66457E-02 0.75552E-02 0.10713E-01 0.17547E-01
 0.30825E-01 0.54614E-01 0.92817E-01 0.14698     0.21577     0.29599     0.38279     0.46939     0.54823     0.61297    
 0.65993     0.68798     0.69726     0.68798     0.65993     0.61297     0.54823     0.46939     0.38279     0.29599    
 0.21577     0.14698     0.92817E-01 0.54614E-01 0.30825E-01 0.17547E-01 0.10713E-01 0.75552E-02 0.70104E-02 0.77943E-02
 0.10434E-01 0.15949E-01 0.26528E-01 0.45804E-01 0.77946E-01 0.12551     0.18804     0.26250     0.34409     0.42652    
 0.50267     0.56621     0.61297     0.64119     0.65058     0.64119     0.61297     0.56621     0.50267     0.42652    
 0.34409     0.26250     0.18804     0.12551     0.77946E-01 0.45804E-01 0.26528E-01 0.15949E-01 0.10434E-01 0.77943E-02
 0.77730E-02 0.84139E-02 0.10502E-01 0.14690E-01 0.22546E-01 0.36962E-01 0.61839E-01 0.10054     0.15398     0.21999    
 0.29405     0.37021     0.44183     0.50267     0.54823     0.57610     0.58544     0.57610     0.54823     0.50267    
 0.44183     0.37021     0.29405     0.21999     0.15398     0.10054     0.61839E-01 0.36962E-01 0.22546E-01 0.14690E-01
 0.10502E-01 0.84139E-02 0.91294E-02 0.96042E-02 0.11119E-01 0.14077E-01 0.19525E-01 0.29519E-01 0.47191E-01 0.76030E-01
 0.11824     0.17321     0.23737     0.30515     0.37021     0.42652     0.46939     0.49599     0.50497     0.49599    
 0.46939     0.42652     0.37021     0.30515     0.23737     0.17321     0.11824     0.76030E-01 0.47191E-01 0.29519E-01
 0.19525E-01 0.14077E-01 0.11119E-01 0.96042E-02 0.11371E-01 0.11644E-01 0.12540E-01 0.14360E-01 0.17794E-01 0.24177E-01
 0.35692E-01 0.55256E-01 0.85631E-01 0.12784     0.17996     0.23737     0.29405     0.34409     0.38279     0.40708    
 0.41533     0.40708     0.38279     0.34409     0.29405     0.23737     0.17996     0.12784     0.85631E-01 0.55256E-01
 0.35692E-01 0.24177E-01 0.17794E-01 0.14360E-01 0.12540E-01 0.11644E-01 0.14936E-01 0.14956E-01 0.15145E-01 0.15836E-01
 0.17544E-01 0.21097E-01 0.27862E-01 0.39883E-01 0.59628E-01 0.88992E-01 0.12784     0.17321     0.21999     0.26250    
 0.29599     0.31726     0.32453     0.31726     0.29599     0.26250     0.21999     0.17321     0.12784     0.88992E-01
 0.59628E-01 0.39883E-01 0.27862E-01 0.21097E-01 0.17544E-01 0.15836E-01 0.15145E-01 0.14956E-01 0.20384E-01 0.20088E-01
 0.19422E-01 0.18867E-01 0.18926E-01 0.20159E-01 0.23386E-01 0.29872E-01 0.41348E-01 0.59628E-01 0.85631E-01 0.11824    
 0.15398     0.18804     0.21577     0.23372     0.23992     0.23372     0.21577     0.18804     0.15398     0.11824    
 0.85631E-01 0.59628E-01 0.41348E-01 0.29872E-01 0.23386E-01 0.20159E-01 0.18926E-01 0.18867E-01 0.19422E-01 0.20088E-01
 0.28238E-01 0.27566E-01 0.25868E-01 0.23833E-01 0.22100E-01 0.21184E-01 0.21636E-01 0.24197E-01 0.29872E-01 0.39883E-01
 0.55256E-01 0.76030E-01 0.10054     0.12551     0.14698     0.16141     0.16649     0.16141     0.14698     0.12551    
 0.10054     0.76030E-01 0.55256E-01 0.39883E-01 0.29872E-01 0.24197E-01 0.21636E-01 0.21184E-01 0.22100E-01 0.23833E-01
 0.25868E-01 0.27566E-01 0.38721E-01 0.37643E-01 0.34785E-01 0.31006E-01 0.27192E-01 0.24021E-01 0.22014E-01 0.21636E-01
 0.23386E-01 0.27862E-01 0.35692E-01 0.47191E-01 0.61839E-01 0.77946E-01 0.92817E-01 0.10340     0.10725     0.10340    
 0.92817E-01 0.77946E-01 0.61839E-01 0.47191E-01 0.35692E-01 0.27862E-01 0.23386E-01 0.21636E-01 0.22014E-01 0.24021E-01
 0.27192E-01 0.31006E-01 0.34785E-01 0.37643E-01 0.51536E-01 0.50066E-01 0.46019E-01 0.40328E-01 0.34140E-01 0.28469E-01
 0.24021E-01 0.21184E-01 0.20159E-01 0.21097E-01 0.24177E-01 0.29519E-01 0.36962E-01 0.45804E-01 0.54614E-01 0.61317E-01
 0.63849E-01 0.61317E-01 0.54614E-01 0.45804E-01 0.36962E-01 0.29519E-01 0.24177E-01 0.21097E-01 0.20159E-01 0.21184E-01
 0.24021E-01 0.28469E-01 0.34140E-01 0.40328E-01 0.46019E-01 0.50066E-01 0.65792E-01 0.63954E-01 0.58760E-01 0.51141E-01
 0.42465E-01 0.34140E-01 0.27192E-01 0.22100E-01 0.18926E-01 0.17544E-01 0.17794E-01 0.19525E-01 0.22546E-01 0.26528E-01
 0.30825E-01 0.34319E-01 0.35693E-01 0.34319E-01 0.30825E-01 0.26528E-01 0.22546E-01 0.19525E-01 0.17794E-01 0.17544E-01
 0.18926E-01 0.22100E-01 0.27192E-01 0.34140E-01 0.42465E-01 0.51141E-01 0.58760E-01 0.63954E-01 0.80053E-01 0.77841E-01
 0.71529E-01 0.62112E-01 0.51141E-01 0.40328E-01 0.31006E-01 0.23833E-01 0.18867E-01 0.15836E-01 0.14360E-01 0.14077E-01
 0.14690E-01 0.15949E-01 0.17547E-01 0.18966E-01 0.19549E-01 0.18966E-01 0.17547E-01 0.15949E-01 0.14690E-01 0.14077E-01
 0.14360E-01 0.15836E-01 0.18867E-01 0.23833E-01 0.31006E-01 0.40328E-01 0.51141E-01 0.62112E-01 0.71529E-01 0.77841E-01
 0.92454E-01 0.89854E-01 0.82476E-01 0.71529E-01 0.58760E-01 0.46019E-01 0.34785E-01 0.25868E-01 0.19422E-01 0.15145E-01
 0.12540E-01 0.11119E-01 0.10502E-01 0.10434E-01 0.10713E-01 0.11087E-01 0.11260E-01 0.11087E-01 0.10713E-01 0.10434E-01
 0.10502E-01 0.11119E-01 0.12540E-01 0.15145E-01 0.19422E-01 0.25868E-01 0.34785E-01 0.46019E-01 0.58760E-01 0.71529E-01
 0.82476E-01 0.89854E-01 0.10099     0.98065E-01 0.89854E-01 0.77841E-01 0.63954E-01 0.50066E-01 0.37643E-01 0.27566E-01
 0.20088E-01 0.14956E-01 0.11644E-01 0.96042E-02 0.84139E-02 0.77943E-02 0.75552E-02 0.75236E-02 0.75372E-02 0.75236E-02
 0.75552E-02 0.77943E-02 0.84139E-02 0.96042E-02 0.11644E-01 0.14956E-01 0.20088E-01 0.27566E-01 0.37643E-01 0.50066E-01
 0.63954E-01 0.77841E-01 0.89854E-01 0.98065E-01 0.14034     0.13619     0.12455     0.10758     0.88036E-01 0.68485E-01
 0.50907E-01 0.36507E-01 0.25699E-01 0.18209E-01 0.13355E-01 0.10368E-01 0.86122E-02 0.76346E-02 0.71354E-02 0.69175E-02
 0.68592E-02 0.69175E-02 0.71354E-02 0.76346E-02 0.86122E-02 0.10368E-01 0.13355E-01 0.18209E-01 0.25699E-01 0.36507E-01
 0.50907E-01 0.68485E-01 0.88036E-01 0.10758     0.12455     0.13619     0.13619     0.13219     0.12097     0.10452    
 0.85489E-01 0.66452E-01 0.49407E-01 0.35545E-01 0.25229E-01 0.18144E-01 0.13600E-01 0.10849E-01 0.92780E-02 0.84539E-02
 0.80839E-02 0.79597E-02 0.79369E-02 0.79597E-02 0.80839E-02 0.84539E-02 0.92780E-02 0.10849E-01 0.13600E-01 0.18144E-01
 0.25229E-01 0.35545E-01 0.49407E-01 0.66452E-01 0.85489E-01 0.10452     0.12097     0.13219     0.12455     0.12097    
 0.11082     0.95801E-01 0.78302E-01 0.60833E-01 0.45384E-01 0.33062E-01 0.24100E-01 0.18115E-01 0.14441E-01 0.12407E-01
 0.11470E-01 0.11237E-01 0.11401E-01 0.11680E-01 0.11812E-01 0.11680E-01 0.11401E-01 0.11237E-01 0.11470E-01 0.12407E-01
 0.14441E-01 0.18115E-01 0.24100E-01 0.33062E-01 0.45384E-01 0.60833E-01 0.78302E-01 0.95801E-01 0.11082     0.12097    
 0.10758     0.10452     0.95801E-01 0.82842E-01 0.67768E-01 0.52877E-01 0.39968E-01 0.29955E-01 0.22943E-01 0.18553E-01
 0.16247E-01 0.15513E-01 0.15926E-01 0.17108E-01 0.18642E-01 0.19979E-01 0.20519E-01 0.19979E-01 0.18642E-01 0.17108E-01
 0.15926E-01 0.15513E-01 0.16247E-01 0.18553E-01 0.22943E-01 0.29955E-01 0.39968E-01 0.52877E-01 0.67768E-01 0.82842E-01
 0.95801E-01 0.10452     0.88036E-01 0.85489E-01 0.78302E-01 0.67768E-01 0.55745E-01 0.44143E-01 0.34376E-01 0.27117E-01
 0.22434E-01 0.20092E-01 0.19803E-01 0.21309E-01 0.24321E-01 0.28382E-01 0.32717E-01 0.36172E-01 0.37511E-01 0.36172E-01
 0.32717E-01 0.28382E-01 0.24321E-01 0.21309E-01 0.19803E-01 0.20092E-01 0.22434E-01 0.27117E-01 0.34376E-01 0.44143E-01
 0.55745E-01 0.67768E-01 0.78302E-01 0.85489E-01 0.68485E-01 0.66452E-01 0.60833E-01 0.52877E-01 0.44143E-01 0.36050E-01
 0.29588E-01 0.25271E-01 0.23274E-01 0.23662E-01 0.26531E-01 0.31937E-01 0.39626E-01 0.48735E-01 0.57694E-01 0.64409E-01
 0.66924E-01 0.64409E-01 0.57694E-01 0.48735E-01 0.39626E-01 0.31937E-01 0.26531E-01 0.23662E-01 0.23274E-01 0.25271E-01
 0.29588E-01 0.36050E-01 0.44143E-01 0.52877E-01 0.60833E-01 0.66452E-01 0.50907E-01 0.49407E-01 0.45384E-01 0.39968E-01
 0.34376E-01 0.29588E-01 0.26315E-01 0.25083E-01 0.26359E-01 0.30694E-01 0.38685E-01 0.50592E-01 0.65746E-01 0.82260E-01
 0.97334E-01 0.10797     0.11182     0.10797     0.97334E-01 0.82260E-01 0.65746E-01 0.50592E-01 0.38685E-01 0.30694E-01
 0.26359E-01 0.25083E-01 0.26315E-01 0.29588E-01 0.34376E-01 0.39968E-01 0.45384E-01 0.49407E-01 0.36507E-01 0.35545E-01
 0.33062E-01 0.29955E-01 0.27117E-01 0.25271E-01 0.25083E-01 0.27320E-01 0.32980E-01 0.43280E-01 0.59237E-01 0.80775E-01
 0.10598     0.13139     0.15305     0.16756     0.17267     0.16756     0.15305     0.13139     0.10598     0.80775E-01
 0.59237E-01 0.43280E-01 0.32980E-01 0.27320E-01 0.25083E-01 0.25271E-01 0.27117E-01 0.29955E-01 0.33062E-01 0.35545E-01
 0.25699E-01 0.25229E-01 0.24100E-01 0.22943E-01 0.22434E-01 0.23274E-01 0.26359E-01 0.32980E-01 0.44889E-01 0.63929E-01
 0.90956E-01 0.12460     0.16106     0.19543     0.22324     0.24124     0.24746     0.24124     0.22324     0.19543    
 0.16106     0.12460     0.90956E-01 0.63929E-01 0.44889E-01 0.32980E-01 0.26359E-01 0.23274E-01 0.22434E-01 0.22943E-01
 0.24100E-01 0.25229E-01 0.18209E-01 0.18144E-01 0.18115E-01 0.18553E-01 0.20092E-01 0.23662E-01 0.30694E-01 0.43280E-01
 0.63929E-01 0.94521E-01 0.13471     0.18114     0.22837     0.27082     0.30410     0.32522     0.33246     0.32522    
 0.30410     0.27082     0.22837     0.18114     0.13471     0.94521E-01 0.63929E-01 0.43280E-01 0.30694E-01 0.23662E-01
 0.20092E-01 0.18553E-01 0.18115E-01 0.18144E-01 0.13355E-01 0.13600E-01 0.14441E-01 0.16247E-01 0.19803E-01 0.26531E-01
 0.38685E-01 0.59237E-01 0.90956E-01 0.13471     0.18819     0.24629     0.30284     0.35224     0.39025     0.41409    
 0.42221     0.41409     0.39025     0.35224     0.30284     0.24629     0.18819     0.13471     0.90956E-01 0.59237E-01
 0.38685E-01 0.26531E-01 0.19803E-01 0.16247E-01 0.14441E-01 0.13600E-01 0.10368E-01 0.10849E-01 0.12407E-01 0.15513E-01
 0.21309E-01 0.31937E-01 0.50592E-01 0.80775E-01 0.12460     0.18114     0.24629     0.31410     0.37831     0.43339    
 0.47517     0.50109     0.50984     0.50109     0.47517     0.43339     0.37831     0.31410     0.24629     0.18114    
 0.12460     0.80775E-01 0.50592E-01 0.31937E-01 0.21309E-01 0.15513E-01 0.12407E-01 0.10849E-01 0.86122E-02 0.92780E-02
 0.11470E-01 0.15926E-01 0.24321E-01 0.39626E-01 0.65746E-01 0.10598     0.16106     0.22837     0.30284     0.37831    
 0.44849     0.50778     0.55213     0.57929     0.58840     0.57929     0.55213     0.50778     0.44849     0.37831    
 0.30284     0.22837     0.16106     0.10598     0.65746E-01 0.39626E-01 0.24321E-01 0.15926E-01 0.11470E-01 0.92780E-02
 0.76346E-02 0.84539E-02 0.11237E-01 0.17108E-01 0.28382E-01 0.48735E-01 0.82260E-01 0.13139     0.19543     0.27082    
 0.35224     0.43339     0.50778     0.56976     0.61546     0.64312     0.65234     0.64312     0.61546     0.56976    
 0.50778     0.43339     0.35224     0.27082     0.19543     0.13139     0.82260E-01 0.48735E-01 0.28382E-01 0.17108E-01
 0.11237E-01 0.84539E-02 0.71354E-02 0.80839E-02 0.11401E-01 0.18642E-01 0.32717E-01 0.57694E-01 0.97334E-01 0.15305    
 0.22324     0.30410     0.39025     0.47517     0.55213     0.61546     0.66163     0.68933     0.69852     0.68933    
 0.66163     0.61546     0.55213     0.47517     0.39025     0.30410     0.22324     0.15305     0.97334E-01 0.57694E-01
 0.32717E-01 0.18642E-01 0.11401E-01 0.80839E-02 0.69175E-02 0.79597E-02 0.11680E-01 0.19979E-01 0.36172E-01 0.64409E-01
 0.10797     0.16756     0.24124     0.32522     0.41409     0.50109     0.57929     0.64312     0.68933     0.71691    
 0.72602     0.71691     0.68933     0.64312     0.57929     0.50109     0.41409     0.32522     0.24124     0.16756    
 0.10797     0.64409E-01 0.36172E-01 0.19979E-01 0.11680E-01 0.79597E-02 0.68592E-02 0.79369E-02 0.11812E-01 0.20519E-01
 0.37511E-01 0.66924E-01 0.11182     0.17267     0.24746     0.33246     0.42221     0.50984     0.58840     0.65234    
 0.69852     0.72602     0.73511     0.72602     0.69852     0.65234     0.58840     0.50984     0.42221     0.33246    
 0.24746     0.17267     0.11182     0.66924E-01 0.37511E-01 0.20519E-01 0.11812E-01 0.79369E-02 0.69175E-02 0.79597E-02
 0.11680E-01 0.19979E-01 0.36172E-01 0.64409E-01 0.10797     0.16756     0.24124     0.32522     0.41409     0.50109    
 0.57929     0.64312     0.68933     0.71691     0.72602     0.71691     0.68933     0.64312     0.57929     0.50109    
 0.41409     0.32522     0.24124     0.16756     0.10797     0.64409E-01 0.36172E-01 0.19979E-01 0.11680E-01 0.79597E-02
 0.71354E-02 0.80839E-02 0.11401E-01 0.18642E-01 0.32717E-01 0.57694E-01 0.97334E-01 0.15305     0.22324     0.30410    
 0.39025     0.47517     0.55213     0.61546     0.66163     0.68933     0.69852     0.68933     0.66163     0.61546    
 0.55213     0.47517     0.39025     0.30410     0.22324     0.15305     0.97334E-01 0.57694E-01 0.32717E-01 0.18642E-01
 0.11401E-01 0.80839E-02 0.76346E-02 0.84539E-02 0.11237E-01 0.17108E-01 0.28382E-01 0.48735E-01 0.82260E-01 0.13139    
 0.19543     0.27082     0.35224     0.43339     0.50778     0.56976     0.61546     0.64312     0.65234     0.64312    
 0.61546     0.56976     0.50778     0.43339     0.35224     0.27082     0.19543     0.13139     0.82260E-01 0.48735E-01
 0.28382E-01 0.17108E-01 0.11237E-01 0.84539E-02 0.86122E-02 0.92780E-02 0.11470E-01 0.15926E-01 0.24321E-01 0.39626E-01
 0.65746E-01 0.10598     0.16106     0.22837     0.30284     0.37831     0.44849     0.50778     0.55213     0.57929    
 0.58840     0.57929     0.55213     0.50778     0.44849     0.37831     0.30284     0.22837     0.16106     0.10598    
 0.65746E-01 0.39626E-01 0.24321E-01 0.15926E-01 0.11470E-01 0.92780E-02 0.10368E-01 0.10849E-01 0.12407E-01 0.15513E-01
 0.21309E-01 0.31937E-01 0.50592E-01 0.80775E-01 0.12460     0.18114     0.24629     0.31410     0.37831     0.43339    
 0.47517     0.50109     0.50984     0.50109     0.47517     0.43339     0.37831     0.31410     0.24629     0.18114    
 0.12460     0.80775E-01 0.50592E-01 0.31937E-01 0.21309E-01 0.15513E-01 0.12407E-01 0.10849E-01 0.13355E-01 0.13600E-01
 0.14441E-01 0.16247E-01 0.19803E-01 0.26531E-01 0.38685E-01 0.59237E-01 0.90956E-01 0.13471     0.18819     0.24629    
 0.30284     0.35224     0.39025     0.41409     0.42221     0.41409     0.39025     0.35224     0.30284     0.24629    
 0.18819     0.13471     0.90956E-01 0.59237E-01 0.38685E-01 0.26531E-01 0.19803E-01 0.16247E-01 0.14441E-01 0.13600E-01
 0.18209E-01 0.18144E-01 0.18115E-01 0.18553E-01 0.20092E-01 0.23662E-01 0.30694E-01 0.43280E-01 0.63929E-01 0.94521E-01
 0.13471     0.18114     0.22837     0.27082     0.30410     0.32522     0.33246     0.32522     0.30410     0.27082    
 0.22837     0.18114     0.13471     0.94521E-01 0.63929E-01 0.43280E-01 0.30694E-01 0.23662E-01 0.20092E-01 0.18553E-01
 0.18115E-01 0.18144E-01 0.25699E-01 0.25229E-01 0.24100E-01 0.22943E-01 0.22434E-01 0.23274E-01 0.26359E-01 0.32980E-01
 0.44889E-01 0.63929E-01 0.90956E-01 0.12460     0.16106     0.19543     0.22324     0.24124     0.24746     0.24124    
 0.22324     0.19543     0.16106     0.12460     0.90956E-01 0.63929E-01 0.44889E-01 0.32980E-01 0.26359E-01 0.23274E-01
 0.22434E-01 0.22943E-01 0.24100E-01 0.25229E-01 0.36507E-01 0.35545E-01 0.33062E-01 0.29955E-01 0.27117E-01 0.25271E-01
 0.25083E-01 0.27320E-01 0.32980E-01 0.43280E-01 0.59237E-01 0.80775E-01 0.10598     0.13139     0.15305     0.16756    
 0.17267     0.16756     0.15305     0.13139     0.10598     0.80775E-01 0.59237E-01 0.43280E-01 0.32980E-01 0.27320E-01
 0.25083E-01 0.25271E-01 0.27117E-01 0.29955E-01 0.33062E-01 0.35545E-01 0.50907E-01 0.49407E-01 0.45384E-01 0.39968E-01
 0.34376E-01 0.29588E-01 0.26315E-01 0.25083E-01 0.26359E-01 0.30694E-01 0.38685E-01 0.50592E-01 0.65746E-01 0.82260E-01
 0.97334E-01 0.10797     0.11182     0.10797     0.97334E-01 0.82260E-01 0.65746E-01 0.50592E-01 0.38685E-01 0.30694E-01
 0.26359E-01 0.25083E-01 0.26315E-01 0.29588E-01 0.34376E-01 0.39968E-01 0.45384E-01 0.49407E-01 0.68485E-01 0.66452E-01
 0.60833E-01 0.52877E-01 0.44143E-01 0.36050E-01 0.29588E-01 0.25271E-01 0.23274E-01 0.23662E-01 0.26531E-01 0.31937E-01
 0.39626E-01 0.48735E-01 0.57694E-01 0.64409E-01 0.66924E-01 0.64409E-01 0.57694E-01 0.48735E-01 0.39626E-01 0.31937E-01
 0.26531E-01 0.23662E-01 0.23274E-01 0.25271E-01 0.29588E-01 0.36050E-01 0.44143E-01 0.52877E-01 0.60833E-01 0.66452E-01
 0.88036E-01 0.85489E-01 0.78302E-01 0.67768E-01 0.55745E-01 0.44143E-01 0.34376E-01 0.27117E-01 0.22434E-01 0.20092E-01
 0.19803E-01 0.21309E-01 0.24321E-01 0.28382E-01 0.32717E-01 0.36172E-01 0.37511E-01 0.36172E-01 0.32717E-01 0.28382E-01
 0.24321E-01 0.21309E-01 0.19803E-01 0.20092E-01 0.22434E-01 0.27117E-01 0.34376E-01 0.44143E-01 0.55745E-01 0.67768E-01
 0.78302E-01 0.85489E-01 0.10758     0.10452     0.95801E-01 0.82842E-01 0.67768E-01 0.52877E-01 0.39968E-01 0.29955E-01
 0.22943E-01 0.18553E-01 0.16247E-01 0.15513E-01 0.15926E-01 0.17108E-01 0.18642E-01 0.19979E-01 0.20519E-01 0.19979E-01
 0.18642E-01 0.17108E-01 0.15926E-01 0.15513E-01 0.16247E-01 0.18553E-01 0.22943E-01 0.29955E-01 0.39968E-01 0.52877E-01
 0.67768E-01 0.82842E-01 0.95801E-01 0.10452     0.12455     0.12097     0.11082     0.95801E-01 0.78302E-01 0.60833E-01
 0.45384E-01 0.33062E-01 0.24100E-01 0.18115E-01 0.14441E-01 0.12407E-01 0.11470E-01 0.11237E-01 0.11401E-01 0.11680E-01
 0.11812E-01 0.11680E-01 0.11401E-01 0.11237E-01 0.11470E-01 0.12407E-01 0.14441E-01 0.18115E-01 0.24100E-01 0.33062E-01
 0.45384E-01 0.60833E-01 0.78302E-01 0.95801E-01 0.11082     0.12097     0.13619     0.13219     0.12097     0.10452    
 0.85489E-01 0.66452E-01 0.49407E-01 0.35545E-01 0.25229E-01 0.18144E-01 0.13600E-01 0.10849E-01 0.92780E-02 0.84539E-02
 0.80839E-02 0.79597E-02 0.79369E-02 0.79597E-02 0.80839E-02 0.84539E-02 0.92780E-02 0.10849E-01 0.13600E-01 0.18144E-01
 0.25229E-01 0.35545E-01 0.49407E-01 0.66452E-01 0.85489E-01 0.10452     0.12097     0.13219     0.27973     0.27209    
 0.25028     0.21741     0.17811     0.13752     0.10022     0.69353E-01 0.46234E-01 0.30461E-01 0.20540E-01 0.14695E-01
 0.11413E-01 0.96178E-02 0.86370E-02 0.81273E-02 0.79650E-02 0.81273E-02 0.86370E-02 0.96178E-02 0.11413E-01 0.14695E-01
 0.20540E-01 0.30461E-01 0.46234E-01 0.69353E-01 0.10022     0.13752     0.17811     0.21741     0.25028     0.27209    
 0.27209     0.26464     0.24332     0.21118     0.17276     0.13318     0.96955E-01 0.67170E-01 0.45024E-01 0.30021E-01
 0.20647E-01 0.15170E-01 0.12143E-01 0.10537E-01 0.96978E-02 0.92787E-02 0.91478E-02 0.92787E-02 0.96978E-02 0.10537E-01
 0.12143E-01 0.15170E-01 0.20647E-01 0.30021E-01 0.45024E-01 0.67170E-01 0.96955E-01 0.13318     0.17276     0.21118    
 0.24332     0.26464     0.25028     0.24332     0.22341     0.19341     0.15765     0.12106     0.88003E-01 0.61317E-01
 0.41890E-01 0.29014E-01 0.21175E-01 0.16799E-01 0.14622E-01 0.13729E-01 0.13477E-01 0.13461E-01 0.13474E-01 0.13461E-01
 0.13477E-01 0.13729E-01 0.14622E-01 0.16799E-01 0.21175E-01 0.29014E-01 0.41890E-01 0.61317E-01 0.88003E-01 0.12106    
 0.15765     0.19341     0.22341     0.24332     0.21741     0.21118     0.19341     0.16679     0.13532     0.10358    
 0.75535E-01 0.53540E-01 0.38077E-01 0.28277E-01 0.22767E-01 0.20282E-01 0.19839E-01 0.20628E-01 0.21902E-01 0.22991E-01
 0.23413E-01 0.22991E-01 0.21902E-01 0.20628E-01 0.19839E-01 0.20282E-01 0.22767E-01 0.28277E-01 0.38077E-01 0.53540E-01
 0.75535E-01 0.10358     0.13532     0.16679     0.19341     0.21118     0.17811     0.17276     0.15765     0.13532    
 0.10944     0.83987E-01 0.62225E-01 0.45874E-01 0.35053E-01 0.28940E-01 0.26538E-01 0.27048E-01 0.29794E-01 0.33936E-01
 0.38331E-01 0.41688E-01 0.42948E-01 0.41688E-01 0.38331E-01 0.33936E-01 0.29794E-01 0.27048E-01 0.26538E-01 0.28940E-01
 0.35053E-01 0.45874E-01 0.62225E-01 0.83987E-01 0.10944     0.13532     0.15765     0.17276     0.13752     0.13318    
 0.12106     0.10358     0.83987E-01 0.65487E-01 0.50469E-01 0.40017E-01 0.34115E-01 0.32300E-01 0.34188E-01 0.39512E-01
 0.47717E-01 0.57522E-01 0.66934E-01 0.73760E-01 0.76259E-01 0.73760E-01 0.66934E-01 0.57522E-01 0.47717E-01 0.39512E-01
 0.34188E-01 0.32300E-01 0.34115E-01 0.40017E-01 0.50469E-01 0.65487E-01 0.83987E-01 0.10358     0.12106     0.13318    
 0.10022     0.96955E-01 0.88003E-01 0.75535E-01 0.62225E-01 0.50469E-01 0.41856E-01 0.37095E-01 0.36396E-01 0.39975E-01
 0.48189E-01 0.61081E-01 0.77597E-01 0.95310E-01 0.11108     0.12196     0.12584     0.12196     0.11108     0.95310E-01
 0.77597E-01 0.61081E-01 0.48189E-01 0.39975E-01 0.36396E-01 0.37095E-01 0.41856E-01 0.50469E-01 0.62225E-01 0.75535E-01
 0.88003E-01 0.96955E-01 0.69353E-01 0.67170E-01 0.61317E-01 0.53540E-01 0.45874E-01 0.40017E-01 0.37095E-01 0.37878E-01
 0.43199E-01 0.54159E-01 0.71668E-01 0.95301E-01 0.12248     0.14918     0.17143     0.18615     0.19129     0.18615    
 0.17143     0.14918     0.12248     0.95301E-01 0.71668E-01 0.54159E-01 0.43199E-01 0.37878E-01 0.37095E-01 0.40017E-01
 0.45874E-01 0.53540E-01 0.61317E-01 0.67170E-01 0.46234E-01 0.45024E-01 0.41890E-01 0.38077E-01 0.35053E-01 0.34115E-01
 0.36396E-01 0.43199E-01 0.56265E-01 0.77443E-01 0.10735     0.14385     0.18224     0.21734     0.24518     0.26307    
 0.26924     0.26307     0.24518     0.21734     0.18224     0.14385     0.10735     0.77443E-01 0.56265E-01 0.43199E-01
 0.36396E-01 0.34115E-01 0.35053E-01 0.38077E-01 0.41890E-01 0.45024E-01 0.30461E-01 0.30021E-01 0.29014E-01 0.28277E-01
 0.28940E-01 0.32300E-01 0.39975E-01 0.54159E-01 0.77443E-01 0.11158     0.15551     0.20463     0.25275     0.29462    
 0.32682     0.34713     0.35409     0.34713     0.32682     0.29462     0.25275     0.20463     0.15551     0.11158    
 0.77443E-01 0.54159E-01 0.39975E-01 0.32300E-01 0.28940E-01 0.28277E-01 0.29014E-01 0.30021E-01 0.20540E-01 0.20647E-01
 0.21175E-01 0.22767E-01 0.26538E-01 0.34188E-01 0.48189E-01 0.71668E-01 0.10735     0.15551     0.21252     0.27199    
 0.32752     0.37443     0.40983     0.43187     0.43936     0.43187     0.40983     0.37443     0.32752     0.27199    
 0.21252     0.15551     0.10735     0.71668E-01 0.48189E-01 0.34188E-01 0.26538E-01 0.22767E-01 0.21175E-01 0.20647E-01
 0.14695E-01 0.15170E-01 0.16799E-01 0.20282E-01 0.27048E-01 0.39512E-01 0.61081E-01 0.95301E-01 0.14385     0.20463    
 0.27199     0.33907     0.39997     0.45057     0.48824     0.51142     0.51924     0.51142     0.48824     0.45057    
 0.39997     0.33907     0.27199     0.20463     0.14385     0.95301E-01 0.61081E-01 0.39512E-01 0.27048E-01 0.20282E-01
 0.16799E-01 0.15170E-01 0.11413E-01 0.12143E-01 0.14622E-01 0.19839E-01 0.29794E-01 0.47717E-01 0.77597E-01 0.12248    
 0.18224     0.25275     0.32752     0.39997     0.46477     0.51806     0.55737     0.58133     0.58937     0.58133    