Automatically generated mesh
     120
Reciprocal lattice
    0.00000000000000    0.00000000000000    0.00000000000000             1
    0.11111111111111    0.00000000000000    0.00000000000000             2
    0.22222222222222    0.00000000000000    0.00000000000000             2
    0.33333333333333    0.00000000000000    0.00000000000000             2
    0.44444444444444    0.00000000000000    0.00000000000000             2
    0.00000000000000    0.09090909090909    0.00000000000000             2
    0.11111111111111    0.09090909090909    0.00000000000000             4
    0.22222222222222    0.09090909090909    0.00000000000000             4
    0.33333333333333    0.09090909090909    0.00000000000000             4
    0.44444444444444    0.09090909090909    0.00000000000000             4
    0.00000000000000    0.18181818181818    0.00000000000000             2
    0.11111111111111    0.18181818181818    0.00000000000000             4
    0.22222222222222    0.18181818181818    0.00000000000000             4
    0.33333333333333    0.18181818181818    0.00000000000000             4
    0.44444444444444    0.18181818181818    0.00000000000000             4
    0.00000000000000    0.27272727272727    0.00000000000000             2
    0.11111111111111    0.27272727272727    0.00000000000000             4
    0.22222222222222    0.27272727272727    0.00000000000000             4
    0.33333333333333    0.27272727272727    0.00000000000000             4
    0.44444444444444    0.27272727272727    0.00000000000000             4
    0.00000000000000    0.36363636363636    0.00000000000000             2
    0.11111111111111    0.36363636363636    0.00000000000000             4
    0.22222222222222    0.36363636363636    0.00000000000000             4
    0.33333333333333    0.36363636363636    0.00000000000000             4
    0.44444444444444    0.36363636363636    0.00000000000000             4
    0.00000000000000    0.45454545454545    0.00000000000000             2
    0.11111111111111    0.45454545454545    0.00000000000000             4
    0.22222222222222    0.45454545454545    0.00000000000000             4
    0.33333333333333    0.45454545454545    0.00000000000000             4
    0.44444444444444    0.45454545454545    0.00000000000000             4
    0.00000000000000    0.00000000000000    0.14285714285714             2
    0.11111111111111    0.00000000000000    0.14285714285714             4
    0.22222222222222    0.00000000000000    0.14285714285714             4
    0.33333333333333    0.00000000000000    0.14285714285714             4
    0.44444444444444    0.00000000000000    0.14285714285714             4
    0.00000000000000    0.09090909090909    0.14285714285714             4
    0.11111111111111    0.09090909090909    0.14285714285714             8
    0.22222222222222    0.09090909090909    0.14285714285714             8
    0.33333333333333    0.09090909090909    0.14285714285714             8
    0.44444444444444    0.09090909090909    0.14285714285714             8
    0.00000000000000    0.18181818181818    0.14285714285714             4
    0.11111111111111    0.18181818181818    0.14285714285714             8
    0.22222222222222    0.18181818181818    0.14285714285714             8
    0.33333333333333    0.18181818181818    0.14285714285714             8
    0.44444444444444    0.18181818181818    0.14285714285714             8
    0.00000000000000    0.27272727272727    0.14285714285714             4
    0.11111111111111    0.27272727272727    0.14285714285714             8
    0.22222222222222    0.27272727272727    0.14285714285714             8
    0.33333333333333    0.27272727272727    0.14285714285714             8
    0.44444444444444    0.27272727272727    0.14285714285714             8
    0.00000000000000    0.36363636363636    0.14285714285714             4
    0.11111111111111    0.36363636363636    0.14285714285714             8
    0.22222222222222    0.36363636363636    0.14285714285714             8
    0.33333333333333    0.36363636363636    0.14285714285714             8
    0.44444444444444    0.36363636363636    0.14285714285714             8
    0.00000000000000    0.45454545454545    0.14285714285714             4
    0.11111111111111    0.45454545454545    0.14285714285714             8
    0.22222222222222    0.45454545454545    0.14285714285714             8
    0.33333333333333    0.45454545454545    0.14285714285714             8
    0.44444444444444    0.45454545454545    0.14285714285714             8
    0.00000000000000    0.00000000000000    0.28571428571429             2
    0.11111111111111    0.00000000000000    0.28571428571429             4
    0.22222222222222    0.00000000000000    0.28571428571429             4
    0.33333333333333    0.00000000000000    0.28571428571429             4
    0.44444444444444    0.00000000000000    0.28571428571429             4
    0.00000000000000    0.09090909090909    0.28571428571429             4
    0.11111111111111    0.09090909090909    0.28571428571429             8
    0.22222222222222    0.09090909090909    0.28571428571429             8
    0.33333333333333    0.09090909090909    0.28571428571429             8
    0.44444444444444    0.09090909090909    0.28571428571429             8
    0.00000000000000    0.18181818181818    0.28571428571429             4
    0.11111111111111    0.18181818181818    0.28571428571429             8
    0.22222222222222    0.18181818181818    0.28571428571429             8
    0.33333333333333    0.18181818181818    0.28571428571429             8
    0.44444444444444    0.18181818181818    0.28571428571429             8
    0.00000000000000    0.27272727272727    0.28571428571429             4
    0.11111111111111    0.27272727272727    0.28571428571429             8
    0.22222222222222    0.27272727272727    0.28571428571429             8
    0.33333333333333    0.27272727272727    0.28571428571429             8
    0.44444444444444    0.27272727272727    0.28571428571429             8
    0.00000000000000    0.36363636363636    0.28571428571429             4
    0.11111111111111    0.36363636363636    0.28571428571429             8
    0.22222222222222    0.36363636363636    0.28571428571429             8
    0.33333333333333    0.36363636363636    0.28571428571429             8
    0.44444444444444    0.36363636363636    0.28571428571429             8
    0.00000000000000    0.45454545454545    0.28571428571429             4
    0.11111111111111    0.45454545454545    0.28571428571429             8
    0.22222222222222    0.45454545454545    0.28571428571429             8
    0.33333333333333    0.45454545454545    0.28571428571429             8
    0.44444444444444    0.45454545454545    0.28571428571429             8
    0.00000000000000    0.00000000000000    0.42857142857143             2
    0.11111111111111    0.00000000000000    0.42857142857143             4
    0.22222222222222    0.00000000000000    0.42857142857143             4
    0.33333333333333    0.00000000000000    0.42857142857143             4
    0.44444444444444    0.00000000000000    0.42857142857143             4
    0.00000000000000    0.09090909090909    0.42857142857143             4
    0.11111111111111    0.09090909090909    0.42857142857143             8
    0.22222222222222    0.09090909090909    0.42857142857143             8
    0.33333333333333    0.09090909090909    0.42857142857143             8
    0.44444444444444    0.09090909090909    0.42857142857143             8
    0.00000000000000    0.18181818181818    0.42857142857143             4
    0.11111111111111    0.18181818181818    0.42857142857143             8
    0.22222222222222    0.18181818181818    0.42857142857143             8
    0.33333333333333    0.18181818181818    0.42857142857143             8
    0.44444444444444    0.18181818181818    0.42857142857143             8
    0.00000000000000    0.27272727272727    0.42857142857143             4
    0.11111111111111    0.27272727272727    0.42857142857143             8
    0.22222222222222    0.27272727272727    0.42857142857143             8
    0.33333333333333    0.27272727272727    0.42857142857143             8
    0.44444444444444    0.27272727272727    0.42857142857143             8
    0.00000000000000    0.36363636363636    0.42857142857143             4
    0.11111111111111    0.36363636363636    0.42857142857143             8
    0.22222222222222    0.36363636363636    0.42857142857143             8
    0.33333333333333    0.36363636363636    0.42857142857143             8
    0.44444444444444    0.36363636363636    0.42857142857143             8
    0.00000000000000    0.45454545454545    0.42857142857143             4
    0.11111111111111    0.45454545454545    0.42857142857143             8
    0.22222222222222    0.45454545454545    0.42857142857143             8
    0.33333333333333    0.45454545454545    0.42857142857143             8
    0.44444444444444    0.45454545454545    0.42857142857143             8
