 vasp.5.3.3 18Dez12 (build May 07 2014 14:23:27) complex                        
  
 executed on             LinuxIFC date 2014.07.22  08:25:00
 running on   16 total cores
 distrk:  each k-point on   16 cores,    1 groups
 distr:  one band on NCORES_PER_BAND=   1 cores,   16 groups


--------------------------------------------------------------------------------------------------------


 INCAR:
 POTCAR:    PAW_PBE Au 04Oct2007                  
 POTCAR:    PAW_PBE Li_sv 10Sep2004               

 ----------------------------------------------------------------------------- 
|                                                                             |
|           W    W    AA    RRRRR   N    N  II  N    N   GGGG   !!!           |
|           W    W   A  A   R    R  NN   N  II  NN   N  G    G  !!!           |
|           W    W  A    A  R    R  N N  N  II  N N  N  G       !!!           |
|           W WW W  AAAAAA  RRRRR   N  N N  II  N  N N  G  GGG   !            |
|           WW  WW  A    A  R   R   N   NN  II  N   NN  G    G                |
|           W    W  A    A  R    R  N    N  II  N    N   GGGG   !!!           |
|                                                                             |
|      For optimal performance we recommend that you set                      |
|        NPAR = 4 - approx SQRT( number of cores)                             |
|      (number of cores/NPAR must be integer)                                 |
|      This setting will greatly improve the performance of VASP for DFT.     |
|      The default NPAR=number of cores might be grossly inefficient          |
|      on modern multi-core architectures or massively parallel machines.     |
|      Do your own testing.                                                   |
|      Unfortunately you need to use the default for hybrid, GW and RPA       |
|      calculations.                                                          |
|                                                                             |
 ----------------------------------------------------------------------------- 

 POTCAR:    PAW_PBE Au 04Oct2007                  
   VRHFIN =Au: s1d10                                                            
   LEXCH  = PE                                                                  
   EATOM  =   926.0867 eV,   68.0654 Ry                                         
                                                                                
   TITEL  = PAW_PBE Au 04Oct2007                                                
   LULTRA =        F    use ultrasoft PP ?                                      
   IUNSCR =        1    unscreen: 0-lin 1-nonlin 2-no                           
   RPACOR =    2.330    partial core radius                                     
   POMASS =  196.966; ZVAL   =   11.000    mass and valenz                      
   RCORE  =    2.500    outmost cutoff radius                                   
   RWIGS  =    2.840; RWIGS  =    1.503    wigner-seitz radius (au A)           
   ENMAX  =  229.943; ENMIN  =  172.457 eV                                      
   ICORE  =        3    local potential                                         
   LCOR   =        T    correct aug charges                                     
   LPAW   =        T    paw PP                                                  
   EAUG   =  356.670                                                            
   DEXC   =    0.000                                                            
   RMAX   =    2.562    core radius for proj-oper                               
   RAUG   =    1.300    factor for augmentation sphere                          
   RDEP   =    2.598    radius for radial grids                                 
   RDEPT  =    2.193    core radius for aug-charge                              
                                                                                
   Atomic configuration                                                         
   16 entries                                                                   
     n  l   j            E        occ.                                          
     1  0  0.50    -80748.5001   2.0000                                         
     2  0  0.50    -14244.7466   2.0000                                         
     2  1  1.50    -12310.9591   6.0000                                         
     3  0  0.50     -3362.1768   2.0000                                         
     3  1  1.50     -2801.5463   6.0000                                         
     3  2  2.50     -2203.8206  10.0000                                         
     4  0  0.50      -729.8168   2.0000                                         
     4  1  1.50      -546.0527   6.0000                                         
     4  2  2.50      -325.7302  10.0000                                         
     4  3  3.50       -81.1472  14.0000                                         
     5  0  0.50      -108.3201   2.0000                                         
     5  1  1.50       -59.7479   6.0000                                         
     5  2  2.50        -6.8783  10.0000                                         
     6  0  0.50        -5.7602   1.0000                                         
     6  1  1.50        -6.8029   0.0000                                         
     5  3  2.50        -1.3606   0.0000                                         
   Description                                                                  
     l       E           TYP  RCUT    TYP  RCUT                                 
     2     -6.8782861     23  2.500                                             
     2     -8.2388687     23  2.500                                             
     0     -5.7601759     23  2.500                                             
     0     -0.8493231     23  2.500                                             
     1     -2.7211652     23  2.500                                             
     1     27.2116520     23  2.500                                             
     3     -1.3605826     23  2.500                                             
  local pseudopotential read in
  partial core-charges read in
  partial kinetic energy density read in
  atomic valenz-charges read in
  non local Contribution for L=           2  read in
    real space projection operators read in
  non local Contribution for L=           2  read in
    real space projection operators read in
  non local Contribution for L=           0  read in
    real space projection operators read in
  non local Contribution for L=           0  read in
    real space projection operators read in
  non local Contribution for L=           1  read in
    real space projection operators read in
  non local Contribution for L=           1  read in
    real space projection operators read in
    PAW grid and wavefunctions read in
 
   number of l-projection  operators is LMAX  =           6
   number of lm-projection operators is LMMAX =          18
 
 POTCAR:    PAW_PBE Li_sv 10Sep2004               
   VRHFIN =Li: 1s2s2p                                                           
   LEXCH  = PE                                                                  
   EATOM  =   202.7858 eV,   14.9043 Ry                                         
                                                                                
   TITEL  = PAW_PBE Li_sv 10Sep2004                                             
   LULTRA =        F    use ultrasoft PP ?                                      
   IUNSCR =        0    unscreen: 0-lin 1-nonlin 2-no                           
   RPACOR =    0.000    partial core radius                                     
   POMASS =    7.010; ZVAL   =    3.000    mass and valenz                      
   RCORE  =    1.700    outmost cutoff radius                                   
   RWIGS  =    2.050; RWIGS  =    1.085    wigner-seitz radius (au A)           
   ENMAX  =  499.034; ENMIN  =  374.276 eV                                      
   ICORE  =        2    local potential                                         
   LCOR   =        T    correct aug charges                                     
   LPAW   =        T    paw PP                                                  
   EAUG   =  628.945                                                            
   RMAX   =    1.732    core radius for proj-oper                               
   RAUG   =    1.300    factor for augmentation sphere                          
   RDEP   =    1.728    radius for radial grids                                 
   RDEPT  =    1.329    core radius for aug-charge                              
                                                                                
   Atomic configuration                                                         
    4 entries                                                                   
     n  l   j            E        occ.                                          
     1  0  0.50       -51.8549   2.0000                                         
     2  0  0.50        -2.8742   1.0000                                         
     2  1  0.50        -1.3606   0.0000                                         
     3  2  1.50        -1.3606   0.0000                                         
   Description                                                                  
     l       E           TYP  RCUT    TYP  RCUT                                 
     0    -51.8548813     23  1.400                                             
     0     -2.8742052     23  1.700                                             
     1     -1.3605826     23  1.400                                             
     2     -1.3605826     23  1.400                                             
  local pseudopotential read in
  atomic valenz-charges read in
  non local Contribution for L=           0  read in
    real space projection operators read in
  non local Contribution for L=           0  read in
    real space projection operators read in
  non local Contribution for L=           1  read in
    real space projection operators read in
    PAW grid and wavefunctions read in
 
   number of l-projection  operators is LMAX  =           3
   number of lm-projection operators is LMMAX =           5
 
  PAW_PBE Au 04Oct2007                  :
 energy of atom  1       EATOM= -926.0867
 kinetic energy error for atom=    0.0011 (will be added to EATOM!!)
  PAW_PBE Li_sv 10Sep2004               :
 energy of atom  2       EATOM= -202.7858
 kinetic energy error for atom=    0.0087 (will be added to EATOM!!)
 
 
 POSCAR: Au Li                                   
  positions in direct lattice
  No initial velocities read in
 exchange correlation table for  LEXCH =        8
   RHO(1)=    0.500       N(1)  =     2000
   RHO(2)=  100.500       N(2)  =     4000
 


--------------------------------------------------------------------------------------------------------


 ion  position               nearest neighbor table
   1  0.527  0.746  0.997-  16 2.69  15 2.71  15 2.72  13 2.73  10 2.81  10 2.82  14 2.86   8 2.87
                             8 2.87  11 2.89   4 3.00   4 3.01   9 3.54
   2  0.473  0.942  0.503-  14 2.69  13 2.71  13 2.73  15 2.73  10 2.81  10 2.82  16 2.86   3 2.87
                             3 2.87  12 2.89   9 3.00   9 3.01   4 3.54
   3  0.234  0.143  0.623-  10 2.68  16 2.80  16 2.81  12 2.84   9 2.85  12 2.86   2 2.87   2 2.87
                             6 2.89   5 2.89   6 2.89   7 2.93
   4  0.014  0.602  0.260-  13 2.71  13 2.72  14 2.74  15 2.74   7 2.83  11 2.84  11 2.84   7 2.85
                             8 2.85  12 2.96   1 3.00   1 3.01   2 3.54
   5  0.499  0.215  0.006-  15 2.74  16 2.76  16 2.76  12 2.80   9 2.83   9 2.85  11 2.86  11 2.87
                             3 2.89   6 2.92   8 2.93   6 2.94
   6  0.000  0.344  0.750-  16 2.65  14 2.65  11 2.79  12 2.79   3 2.89   8 2.89   8 2.89   3 2.89
                             5 2.92   7 2.92   7 2.94   5 2.94
   7  0.501  0.472  0.494-  13 2.74  14 2.76  14 2.76  11 2.80   4 2.83   4 2.85  12 2.87  12 2.87
                             8 2.89   6 2.92   3 2.93   6 2.94
   8  0.766  0.545  0.877-  10 2.68  14 2.80  14 2.81  11 2.84   4 2.85  11 2.86   1 2.87   1 2.87
                             6 2.89   7 2.89   6 2.89   5 2.93
   9  0.986  0.086  0.240-  15 2.71  15 2.72  16 2.74  13 2.74   5 2.83  12 2.84  12 2.84   5 2.85
                             3 2.85  11 2.96   2 3.00   2 3.01   1 3.54
  10  0.000  0.844  0.750-   8 2.68   3 2.68   1 2.81   2 2.81   2 2.82   1 2.82
  11  0.260  0.419  0.117-   6 2.79   7 2.80   4 2.84   4 2.84   8 2.84   8 2.86   5 2.86   5 2.87
                             1 2.89   9 2.96
  12  0.740  0.268  0.383-   6 2.79   5 2.80   9 2.84   9 2.84   3 2.84   3 2.86   7 2.87   7 2.87
                             2 2.89   4 2.96
  13  0.744  0.779  0.368-   4 2.71   2 2.71   4 2.72   1 2.73   2 2.73   7 2.74   9 2.74
  14  0.240  0.642  0.632-   6 2.65   2 2.69   4 2.74   7 2.76   7 2.76   8 2.80   8 2.81   1 2.86

  15  0.256  0.909  0.132-   9 2.71   1 2.71   9 2.72   1 2.72   2 2.73   5 2.74   4 2.74
  16  0.761  0.046  0.868-   6 2.65   1 2.69   9 2.74   5 2.76   5 2.76   3 2.80   3 2.81   2 2.86

 
  LATTYP: Found a triclinic cell.
 ALAT       =     9.5910188559
 B/A-ratio  =     1.3036072734
 C/A-ratio  =     1.8669439134
 COS(alpha) =     0.0009959916
 COS(beta)  =     0.5907552398
 COS(gamma) =     0.7985068060
  
  Lattice vectors:
  
 A1 = (  -4.3049107521,  -8.4995453744,  -1.1014147895)
 A2 = (  -6.6432794266,  -8.6864106011,   6.0610367403)
 A3 = (  -3.7390932356,  -8.0257587650, -15.5636572773)


Analysis of symmetry for initial positions (statically):
=====================================================================
 Subroutine PRICEL returns:
 Original cell was already a primitive cell.
 

 Routine SETGRP: Setting up the symmetry group for a 
 triclinic supercell.


 Subroutine GETGRP returns: Found  1 space group operations
 (whereof  1 operations were pure point group operations)
 out of a pool of  2 trial point group operations.


The static configuration has the point symmetry C_1 .


Analysis of symmetry for dynamics (positions and initial velocities):
=====================================================================
 Subroutine PRICEL returns:
 Original cell was already a primitive cell.
 

 Routine SETGRP: Setting up the symmetry group for a 
 triclinic supercell.


 Subroutine GETGRP returns: Found  1 space group operations
 (whereof  1 operations were pure point group operations)
 out of a pool of  2 trial point group operations.


The dynamic configuration has the point symmetry C_1 .


 irot  :   1
 --------------------------------------------------------------------
 isymop:   1   0   0
           0   1   0
           0   0   1

 gtrans:     0.0000000     0.0000000     0.0000000

 ptrans:     0.0000000     0.0000000     0.0000000
 rotmap:
 (   1->   1)  (   2->   2)  (   3->   3)  (   4->   4)  (   5->   5) 
 (   6->   6)  (   7->   7)  (   8->   8)  (   9->   9)  (  10->  10) 
 (  11->  11)  (  12->  12)  (  13->  13)  (  14->  14)  (  15->  15) 
 (  16->  16) 
 
 
 KPOINTS: KPOINTS created by Atomic Simulation Env

Automatic generation of k-mesh.
Space group operators:
 irot     det(A)      alpha        n_x        n_y        n_z      tau_x      tau_y      tau_z
    1     1.000000     0.000000     1.000000     0.000000     0.000000     0.000000     0.000000     0.000000
 
 Subroutine IBZKPT returns following result:
 ===========================================
 
 Found     42 irreducible k-points:
 
 Following reciprocal coordinates:
            Coordinates               Weight
  0.000000  0.000000  0.125000      2.000000
  0.142857  0.000000  0.125000      2.000000
  0.285714  0.000000  0.125000      2.000000
  0.428571  0.000000  0.125000      2.000000
 -0.428571 -0.000000  0.125000      2.000000
 -0.285714 -0.000000  0.125000      2.000000
 -0.142857 -0.000000  0.125000      2.000000
  0.000000  0.333333  0.125000      2.000000
  0.142857  0.333333  0.125000      2.000000
  0.285714  0.333333  0.125000      2.000000
  0.428571  0.333333  0.125000      2.000000
 -0.428571  0.333333  0.125000      2.000000
 -0.285714  0.333333  0.125000      2.000000
 -0.142857  0.333333  0.125000      2.000000
  0.000000 -0.333333  0.125000      2.000000
  0.142857 -0.333333  0.125000      2.000000
  0.285714 -0.333333  0.125000      2.000000
  0.428571 -0.333333  0.125000      2.000000
 -0.428571 -0.333333  0.125000      2.000000
 -0.285714 -0.333333  0.125000      2.000000
 -0.142857 -0.333333  0.125000      2.000000
  0.000000  0.000000  0.375000      2.000000
  0.142857  0.000000  0.375000      2.000000
  0.285714  0.000000  0.375000      2.000000
  0.428571  0.000000  0.375000      2.000000
 -0.428571 -0.000000  0.375000      2.000000
 -0.285714 -0.000000  0.375000      2.000000
 -0.142857  0.000000  0.375000      2.000000
 -0.000000  0.333333  0.375000      2.000000
  0.142857  0.333333  0.375000      2.000000
  0.285714  0.333333  0.375000      2.000000
  0.428571  0.333333  0.375000      2.000000
 -0.428571  0.333333  0.375000      2.000000
 -0.285714  0.333333  0.375000      2.000000
 -0.142857  0.333333  0.375000      2.000000
  0.000000 -0.333333  0.375000      2.000000
  0.142857 -0.333333  0.375000      2.000000
  0.285714 -0.333333  0.375000      2.000000
  0.428571 -0.333333  0.375000      2.000000
 -0.428571 -0.333333  0.375000      2.000000
 -0.285714 -0.333333  0.375000      2.000000
 -0.142857 -0.333333  0.375000      2.000000
 
 Following cartesian coordinates:
            Coordinates               Weight
 -0.000621 -0.001914  0.017199      2.000000
  0.034092  0.012602  0.028911      2.000000
  0.068804  0.027118  0.040623      2.000000
  0.103517  0.041634  0.052334      2.000000
 -0.104759 -0.045462 -0.017935      2.000000
 -0.070047 -0.030946 -0.006224      2.000000
 -0.035334 -0.016430  0.005488      2.000000
  0.000275  0.036681  0.018499      2.000000
  0.034987  0.051198  0.030210      2.000000
  0.069700  0.065714  0.041922      2.000000
  0.104413  0.080230  0.053634      2.000000
 -0.103863 -0.006867 -0.016636      2.000000
 -0.069151  0.007649 -0.004924      2.000000
 -0.034438  0.022165  0.006787      2.000000
 -0.001517 -0.040510  0.015900      2.000000
  0.033196 -0.025994  0.027612      2.000000
  0.067908 -0.011478  0.039323      2.000000
  0.102621  0.003038  0.051035      2.000000
 -0.105655 -0.084058 -0.019235      2.000000
 -0.070943 -0.069542 -0.007523      2.000000
 -0.036230 -0.055026  0.004188      2.000000
 -0.001864 -0.005742  0.051598      2.000000
  0.032849  0.008774  0.063310      2.000000
  0.067562  0.023290  0.075021      2.000000
  0.102275  0.037806  0.086733      2.000000
 -0.106002 -0.049291  0.016463      2.000000
 -0.071289 -0.034775  0.028175      2.000000
 -0.036576 -0.020259  0.039887      2.000000
 -0.000968  0.032853  0.052898      2.000000
  0.033745  0.047369  0.064609      2.000000
  0.068458  0.061885  0.076321      2.000000
  0.103170  0.076401  0.088032      2.000000
 -0.105106 -0.010695  0.017763      2.000000
 -0.070393  0.003821  0.029474      2.000000
 -0.035680  0.018337  0.041186      2.000000
 -0.002760 -0.044338  0.050299      2.000000
  0.031953 -0.029822  0.062010      2.000000
  0.066666 -0.015306  0.073722      2.000000
  0.101379 -0.000790  0.085433      2.000000
 -0.106898 -0.087886  0.015164      2.000000
 -0.072185 -0.073370  0.026876      2.000000
 -0.037472 -0.058854  0.038587      2.000000
 


--------------------------------------------------------------------------------------------------------




 Dimension of arrays:
   k-points           NKPTS =     42   k-points in BZ     NKDIM =     42   number of bands    NBANDS=     80
   number of dos      NEDOS =    301   number of ions     NIONS =     16
   non local maximal  LDIM  =      6   non local SUM 2l+1 LMDIM =     18
   total plane-waves  NPLWV = 184320
   max r-space proj   IRMAX =      1   max aug-charges    IRDMAX=  13147
   dimension x,y,z NGX =    36 NGY =   80 NGZ =   64
   dimension x,y,z NGXF=    48 NGYF=  108 NGZF=   84
   support grid    NGXF=    48 NGYF=  108 NGZF=   84
   ions per type =               9   7
 NGX,Y,Z   is equivalent  to a cutoff of  14.55, 13.89, 14.12 a.u.
 NGXF,Y,Z  is equivalent  to a cutoff of  19.39, 18.75, 18.53 a.u.


 I would recommend the setting:
   dimension x,y,z NGX =    34 NGY =   78 NGZ =   61
 SYSTEM =  unknown system                          
 POSCAR =  Au Li                                   

 Startparameter for this run:
   NWRITE =      2    write-flag & timer
   PREC   = high      normal or accurate (medium, high low for compatibility)
   ISTART =      0    job   : 0-new  1-cont  2-samecut
   ICHARG =      2    charge: 1-file 2-atom 10-const
   ISPIN  =      1    spin polarized calculation?
   LNONCOLLINEAR =      F non collinear calculations
   LSORBIT =      F    spin-orbit coupling
   INIWAV =      1    electr: 0-lowe 1-rand  2-diag
   LASPH  =      F    aspherical Exc in radial PAW
   METAGGA=      F    non-selfconsistent MetaGGA calc.

 Electronic Relaxation 1
   ENCUT  =  623.8 eV  45.85 Ry    6.77 a.u.   8.38 19.50 15.35*2*pi/ulx,y,z
   ENINI  =  623.8     initial cutoff
   ENAUG  =  628.9 eV  augmentation charge cutoff
   NELM   =     60;   NELMIN=  2; NELMDL= -5     # of ELM steps 
   EDIFF  = 0.1E-06   stopping-criterion for ELM
   LREAL  =      F    real-space projection
   NLSPLINE    = F    spline interpolate recip. space projectors
   LCOMPAT=      F    compatible to vasp.4.4
   GGA_COMPAT  = T    GGA compatible to vasp.4.4-vasp.4.6
   LMAXPAW     = -100 max onsite density
   LMAXMIX     =    2 max onsite mixed and CHGCAR
   VOSKOWN=      0    Vosko Wilk Nusair interpolation
   ROPT   =    0.00000   0.00000
 Ionic relaxation
   EDIFFG = -.5E-02   stopping-criterion for IOM
   NSW    =    250    number of steps for IOM
   NBLOCK =      1;   KBLOCK =    250    inner block; outer block 
   IBRION =      2    ionic relax: 0-MD 1-quasi-New 2-CG
   NFREE  =      1    steps in history (QN), initial steepest desc. (CG)
   ISIF   =      3    stress and relaxation
   IWAVPR =     11    prediction:  0-non 1-charg 2-wave 3-comb
   ISYM   =      2    0-nonsym 1-usesym 2-fastsym
   LCORR  =      T    Harris-Foulkes like correction to forces

   POTIM  = 0.5000    time-step for ionic-motion
   TEIN   =    0.0    initial temperature
   TEBEG  =    0.0;   TEEND  =   0.0 temperature during run
   SMASS  =  -3.00    Nose mass-parameter (am)
   estimated Nose-frequenzy (Omega)   =  0.10E-29 period in steps =****** mass=  -0.387E-27a.u.
   SCALEE = 1.0000    scale energy and forces
   NPACO  =    256;   APACO  = 16.0  distance and # of slots for P.C.
   PSTRESS=    0.0 pullay stress

  Mass of Ions in am
   POMASS = 196.97  7.01
  Ionic Valenz
   ZVAL   =  11.00  3.00
  Atomic Wigner-Seitz radii
   RWIGS  =  -1.00 -1.00
  virtual crystal weights 
   VCA    =   1.00  1.00
   NELECT =     120.0000    total number of electrons
   NUPDOWN=      -1.0000    fix difference up-down

 DOS related values:
   EMIN   =  10.00;   EMAX   =-10.00  energy-range for DOS
   EFERMI =   0.00
   ISMEAR =     1;   SIGMA  =   0.20  broadening in eV -4-tet -1-fermi 0-gaus

 Electronic relaxation 2 (details)
   IALGO  =     38    algorithm
   LDIAG  =      T    sub-space diagonalisation (order eigenvalues)
   LSUBROT=      T    optimize rotation matrix (better conditioning)
   TURBO    =      0    0=normal 1=particle mesh
   IRESTART =      0    0=no restart 2=restart with 2 vectors
   NREBOOT  =      0    no. of reboots
   NMIN     =      0    reboot dimension
   EREF     =   0.00    reference energy to select bands
   IMIX   =      4    mixing-type and parameters
     AMIX     =   0.40;   BMIX     =  1.00
     AMIX_MAG =   1.60;   BMIX_MAG =  1.00
     AMIN     =   0.10
     WC   =   100.;   INIMIX=   1;  MIXPRE=   1;  MAXMIX= -45

 Intra band minimization:
   WEIMIN = 0.0010     energy-eigenvalue tresh-hold
   EBREAK =  0.31E-09  absolut break condition
   DEPER  =   0.30     relativ break condition  

   TIME   =   0.40     timestep for ELM

  volume/ion in A,a.u.               =      16.07       108.43
  Fermi-wavevector in a.u.,A,eV,Ry     =   1.269943  2.399845 21.942871  1.612756
  Thomas-Fermi vector in A             =   2.402957
 
 Write flags
   LWAVE  =      T    write WAVECAR
   LCHARG =      T    write CHGCAR
   LVTOT  =      F    write LOCPOT, total local potential
   LVHAR  =      F    write LOCPOT, Hartree potential only
   LELF   =      F    write electronic localiz. function (ELF)
   LORBIT =      0    0 simple, 1 ext, 2 COOP (PROOUT)


 Dipole corrections
   LMONO  =      F    monopole corrections only (constant potential shift)
   LDIPOL =      F    correct potential (dipole corrections)
   IDIPOL =      0    1-x, 2-y, 3-z, 4-all directions 
   EPSILON=  1.0000000 bulk dielectric constant

 Exchange correlation treatment:
   GGA     =    --    GGA type
   LEXCH   =     8    internal setting for exchange type
   VOSKOWN=      0    Vosko Wilk Nusair interpolation
   LHFCALC =     F    Hartree Fock is set to
   LHFONE  =     F    Hartree Fock one center treatment
   AEXX    =    0.0000 exact exchange contribution

 Linear response parameters
   LEPSILON=     F    determine dielectric tensor
   LRPA    =     F    only Hartree local field effects (RPA)
   LNABLA  =     F    use nabla operator in PAW spheres
   LVEL    =     F    velocity operator in full k-point grid
   LINTERFAST=   F  fast interpolation
   KINTER  =     0    interpolate to denser k-point grid
   CSHIFT  =0.1000    complex shift for real part using Kramers Kronig
   OMEGAMAX=  -1.0    maximum frequency
   DEG_THRESHOLD= 0.2000000E-02 threshold for treating states as degnerate
   RTIME   =    0.100 relaxation time in fs

 Orbital magnetization related:
   ORBITALMAG=     F  switch on orbital magnetization
   LCHIMAG   =     F  perturbation theory with respect to B field
   DQ        =  0.001000  dq finite difference perturbation B field



--------------------------------------------------------------------------------------------------------


 conjugate gradient relaxation of ions
 charge density and potential will be updated during run
 non-spin polarized calculation
 Variant of blocked Davidson
 Davidson routine will perform the subspace rotation
 perform sub-space diagonalisation
    after iterative eigenvector-optimisation
 modified Broyden-mixing scheme, WC =      100.0
 initial mixing is a Kerker type mixing with AMIX =  0.4000 and BMIX =      1.0000
 Hartree-type preconditioning will be used
 using additional bands           20
 reciprocal scheme for non local part
 use partial core corrections
 calculate Harris-corrections to forces 
   (improved forces if not selfconsistent)
 use gradient corrections 
 use of overlap-Matrix (Vanderbilt PP)
 Methfessel and Paxton  Order N= 1 SIGMA  =   0.20


--------------------------------------------------------------------------------------------------------


  energy-cutoff  :      623.79
  volume of cell :      257.07
      direct lattice vectors                 reciprocal lattice vectors
     4.110919832 -0.100056156  0.137339428     0.242988859  0.101612435  0.081981060
    -3.916928913  8.699657686  0.826735933     0.002687910  0.115786790  0.003898365
    -2.338368674 -0.186865227  7.162451530    -0.004969547 -0.015313261  0.137595046

  length of vectors
     4.114430121  9.576526942  7.536816210     0.275843373  0.115883574  0.138533711


 
 k-points in units of 2pi/SCALE and weight: KPOINTS created by Atomic Simulation Env
  -0.00062119 -0.00191416  0.01719938       0.024
   0.03409150  0.01260190  0.02891096       0.024
   0.06880419  0.02711797  0.04062254       0.024
   0.10351689  0.04163403  0.05233412       0.024
  -0.10475928 -0.04546234 -0.01793536       0.024
  -0.07004658 -0.03094628 -0.00622378       0.024
  -0.03533389 -0.01643022  0.00548780       0.024
   0.00027478  0.03668144  0.01849884       0.024
   0.03498747  0.05119750  0.03021042       0.024
   0.06970016  0.06571356  0.04192200       0.024
   0.10441286  0.08022963  0.05363358       0.024
  -0.10386331 -0.00686675 -0.01663590       0.024
  -0.06915061  0.00764931 -0.00492432       0.024
  -0.03443792  0.02216538  0.00678726       0.024
  -0.00151716 -0.04050975  0.01589993       0.024
   0.03319553 -0.02599369  0.02761151       0.024
   0.06790822 -0.01147763  0.03932309       0.024
   0.10262092  0.00303843  0.05103467       0.024
  -0.10565525 -0.08405794 -0.01923481       0.024
  -0.07094255 -0.06954188 -0.00752323       0.024
  -0.03622986 -0.05502582  0.00418835       0.024
  -0.00186358 -0.00574247  0.05159814       0.024
   0.03284911  0.00877359  0.06330972       0.024
   0.06756181  0.02328965  0.07502130       0.024
   0.10227450  0.03780571  0.08673288       0.024
  -0.10600166 -0.04929066  0.01646340       0.024
  -0.07128897 -0.03477460  0.02817498       0.024
  -0.03657627 -0.02025854  0.03988656       0.024
  -0.00096761  0.03285312  0.05289760       0.024
   0.03374508  0.04736919  0.06460918       0.024
   0.06845778  0.06188525  0.07632076       0.024
   0.10317047  0.07640131  0.08803234       0.024
  -0.10510569 -0.01069506  0.01776286       0.024
  -0.07039300  0.00382100  0.02947444       0.024
  -0.03568030  0.01833706  0.04118602       0.024
  -0.00275955 -0.04433807  0.05029869       0.024
   0.03195314 -0.02982201  0.06201027       0.024
   0.06666584 -0.01530595  0.07372185       0.024
   0.10137853 -0.00078988  0.08543343       0.024
  -0.10689763 -0.08788626  0.01516395       0.024
  -0.07218494 -0.07337019  0.02687553       0.024
  -0.03747224 -0.05885413  0.03858711       0.024
 
 k-points in reciprocal lattice and weights: KPOINTS created by Atomic Simulation Env
   0.00000000  0.00000000  0.12500000       0.024
   0.14285714  0.00000000  0.12500000       0.024
   0.28571429  0.00000000  0.12500000       0.024
   0.42857143  0.00000000  0.12500000       0.024
  -0.42857143 -0.00000000  0.12500000       0.024
  -0.28571429 -0.00000000  0.12500000       0.024
  -0.14285714 -0.00000000  0.12500000       0.024
   0.00000000  0.33333333  0.12500000       0.024
   0.14285714  0.33333333  0.12500000       0.024
   0.28571429  0.33333333  0.12500000       0.024
   0.42857143  0.33333333  0.12500000       0.024
  -0.42857143  0.33333333  0.12500000       0.024
  -0.28571429  0.33333333  0.12500000       0.024
  -0.14285714  0.33333333  0.12500000       0.024
   0.00000000 -0.33333333  0.12500000       0.024
   0.14285714 -0.33333333  0.12500000       0.024
   0.28571429 -0.33333333  0.12500000       0.024
   0.42857143 -0.33333333  0.12500000       0.024
  -0.42857143 -0.33333333  0.12500000       0.024
  -0.28571429 -0.33333333  0.12500000       0.024
  -0.14285714 -0.33333333  0.12500000       0.024
   0.00000000  0.00000000  0.37500000       0.024
   0.14285714  0.00000000  0.37500000       0.024
   0.28571429  0.00000000  0.37500000       0.024
   0.42857143  0.00000000  0.37500000       0.024
  -0.42857143 -0.00000000  0.37500000       0.024
  -0.28571429 -0.00000000  0.37500000       0.024
  -0.14285714  0.00000000  0.37500000       0.024
  -0.00000000  0.33333333  0.37500000       0.024
   0.14285714  0.33333333  0.37500000       0.024
   0.28571429  0.33333333  0.37500000       0.024
   0.42857143  0.33333333  0.37500000       0.024
  -0.42857143  0.33333333  0.37500000       0.024
  -0.28571429  0.33333333  0.37500000       0.024
  -0.14285714  0.33333333  0.37500000       0.024
   0.00000000 -0.33333333  0.37500000       0.024
   0.14285714 -0.33333333  0.37500000       0.024
   0.28571429 -0.33333333  0.37500000       0.024
   0.42857143 -0.33333333  0.37500000       0.024
  -0.42857143 -0.33333333  0.37500000       0.024
  -0.28571429 -0.33333333  0.37500000       0.024
  -0.14285714 -0.33333333  0.37500000       0.024
 
 position of ions in fractional coordinates (direct lattice) 
   0.52686277  0.74564062  0.99706977
   0.47315028  0.94189719  0.50293750
   0.23421802  0.14257894  0.62296895
   0.01431149  0.60189585  0.26003726
   0.49864797  0.21521520  0.00633293
   0.00002601  0.34376666  0.75000150
   0.50137359  0.47233514  0.49365511
   0.76571955  0.54496907  0.87702091
   0.98557060  0.08553770  0.23997010
   0.00004523  0.84375772  0.74999350
   0.25986469  0.41948898  0.11736481
   0.74013394  0.26792243  0.38267311
   0.74415224  0.77871058  0.36827482
   0.23954815  0.64197575  0.63209716
   0.25586088  0.90872299  0.13171699
   0.76051423  0.04558522  0.86788580
 
 position of ions in cartesian coordinates  (Angst):
  -3.08624744  6.24778466  7.83027084
  -2.92031476  8.05286000  4.44594789
  -1.05235116  1.10054183  4.61202739
  -2.90681288  5.18626398  2.36207875
   1.19211044  1.82122238  0.29176949
  -3.10018267  2.85050050  5.65605724
  -0.94334419  3.96674158  3.99513558
  -1.03759164  4.50054468  6.83732876
   3.15541808  0.60069419  1.92484903
  -5.05851438  7.20025114  6.06936314
  -0.84926779  3.60147805  1.22311602
   1.09836734  2.18527019  3.06402827
  -0.85216607  6.63124071  3.38374002
  -3.00788634  5.44288403  5.09100908
  -2.81558267  7.85536515  1.72983032
   0.91842200  0.15830397  6.35832547
 


--------------------------------------------------------------------------------------------------------


 k-point  1 :   0.0000 0.0000 0.1250  plane waves:    9137
 k-point  2 :   0.1429 0.0000 0.1250  plane waves:    9099
 k-point  3 :   0.2857 0.0000 0.1250  plane waves:    9078
 k-point  4 :   0.4286 0.0000 0.1250  plane waves:    9088
 k-point  5 :  -0.4286-0.0000 0.1250  plane waves:    9087
 k-point  6 :  -0.2857-0.0000 0.1250  plane waves:    9092
 k-point  7 :  -0.1429-0.0000 0.1250  plane waves:    9122
 k-point  8 :   0.0000 0.3333 0.1250  plane waves:    9123
 k-point  9 :   0.1429 0.3333 0.1250  plane waves:    9095
 k-point 10 :   0.2857 0.3333 0.1250  plane waves:    9094
 k-point 11 :   0.4286 0.3333 0.1250  plane waves:    9083
 k-point 12 :  -0.4286 0.3333 0.1250  plane waves:    9097
 k-point 13 :  -0.2857 0.3333 0.1250  plane waves:    9096
 k-point 14 :  -0.1429 0.3333 0.1250  plane waves:    9116
 k-point 15 :   0.0000-0.3333 0.1250  plane waves:    9090
 k-point 16 :   0.1429-0.3333 0.1250  plane waves:    9107
 k-point 17 :   0.2857-0.3333 0.1250  plane waves:    9089
 k-point 18 :   0.4286-0.3333 0.1250  plane waves:    9083
 k-point 19 :  -0.4286-0.3333 0.1250  plane waves:    9073
 k-point 20 :  -0.2857-0.3333 0.1250  plane waves:    9095
 k-point 21 :  -0.1429-0.3333 0.1250  plane waves:    9104
 k-point 22 :   0.0000 0.0000 0.3750  plane waves:    9102
 k-point 23 :   0.1429 0.0000 0.3750  plane waves:    9104
 k-point 24 :   0.2857 0.0000 0.3750  plane waves:    9094
 k-point 25 :   0.4286 0.0000 0.3750  plane waves:    9084
 k-point 26 :  -0.4286-0.0000 0.3750  plane waves:    9085
 k-point 27 :  -0.2857-0.0000 0.3750  plane waves:    9095
 k-point 28 :  -0.1429 0.0000 0.3750  plane waves:    9104
 k-point 29 :  -0.0000 0.3333 0.3750  plane waves:    9107
 k-point 30 :   0.1429 0.3333 0.3750  plane waves:    9093
 k-point 31 :   0.2857 0.3333 0.3750  plane waves:    9099
 k-point 32 :   0.4286 0.3333 0.3750  plane waves:    9076
 k-point 33 :  -0.4286 0.3333 0.3750  plane waves:    9084
 k-point 34 :  -0.2857 0.3333 0.3750  plane waves:    9078
 k-point 35 :  -0.1429 0.3333 0.3750  plane waves:    9106
 k-point 36 :   0.0000-0.3333 0.3750  plane waves:    9087
 k-point 37 :   0.1429-0.3333 0.3750  plane waves:    9084
 k-point 38 :   0.2857-0.3333 0.3750  plane waves:    9093
 k-point 39 :   0.4286-0.3333 0.3750  plane waves:    9075
 k-point 40 :  -0.4286-0.3333 0.3750  plane waves:    9082
 k-point 41 :  -0.2857-0.3333 0.3750  plane waves:    9072
 k-point 42 :  -0.1429-0.3333 0.3750  plane waves:    9102

 maximum and minimum number of plane-waves per node :      9137     9072

 maximum number of plane-waves:      9137
 maximum index in each direction: 
   IXMAX=    8   IYMAX=   19   IZMAX=   15
   IXMIN=   -8   IYMIN=  -19   IZMIN=  -15

 NGX is ok and might be reduce to  34
 NGY is ok and might be reduce to  78
 NGZ is ok and might be reduce to  62

 serial   3D FFT for wavefunctions
 parallel 3D FFT for charge:
    minimum data exchange during FFTs selected (reduces bandwidth)


 total amount of memory used by VASP on root node   185536. kBytes
========================================================================

   base      :      30000. kBytes
   nonl-proj :     113045. kBytes
   fftplans  :       1823. kBytes
   grid      :       8971. kBytes
   one-center:        248. kBytes
   wavefun   :      31449. kBytes
 
 Broyden mixing: mesh for mixing (old mesh)
   NGX = 17   NGY = 39   NGZ = 31
  (NGX  = 48   NGY  =108   NGZ  = 84)
  gives a total of  20553 points

 initial charge density was supplied:
 charge density of overlapping atoms calculated
 number of electron     120.0000000 magnetization 
 keeping initial charge density in first step


--------------------------------------------------------------------------------------------------------


 Maximum index for augmentation-charges          881 (set IRDMAX)


--------------------------------------------------------------------------------------------------------


 First call to EWALD:  gamma=   0.279
 Maximum number of real-space cells 4x 2x 2
 Maximum number of reciprocal cells 2x 4x 3

 FEWALD executed in parallel
    FEWALD:  cpu time    0.00: real time    0.00


----------------------------------------- Iteration    1(   1)  ---------------------------------------


    POTLOK:  cpu time    0.03: real time    0.05
    SETDIJ:  cpu time    0.01: real time    0.02
     EDDAV:  cpu time   15.65: real time   15.72
       DOS:  cpu time    0.00: real time    0.01
    --------------------------------------------
      LOOP:  cpu time   15.70: real time   15.79

 eigenvalue-minimisations  :  6720
 total energy-change (2. order) : 0.8956431E+03  (-0.6331697E+04)
 number of electr     EDDAV:  cpu time   17.62: real time   17.70
       DOS:  cpu time    0.00: real time    0.00
    CHARGE:  cpu time    1.71: real time    1.71
    MIXING:  cpu time    0.00: real time    0.00
    --------------------------------------------
      LOOP:  cpu time   19.36: real time   19.46

 eigenvalue-minimisations  :  7936
 total energy-change (2. order) : 0.1535192E-02  (-0.2083622E-03)
 number of electron     120.0000047 magnetization 
 augmentation part       42.0510715 magnetization 

 Broyden mixing:
  rms(total) = 0.13370E-01    rms(broyden)= 0.13370E-01
  rms(prec ) = 0.17169E-01
  weight for this iteration     100.00

 eigenvalues of (default mixing * dielectric matrix)
  average eigenvalue GAMMA=   1.3872
  0.9717  1.8027

 Free energy of the ion-electron system (eV)
  ---------------------------------------------------
  alpha Z        PSCENC =       469.27522137
  Ewald energy   TEWEN  =     -8357.68545011
  -1/2 Hartree   DENC   =     -1869.74767365
  -exchange  EXHF       =          EDDAV:  cpu time   15.69: real time   15.74
       DOS:  cpu time    0.00: real time    0.00
    --------------------------------------------
      LOOP:  cpu time   15.69: real time   15.74

 eigenvalue-minimisations  :  6752
 total energy-change (2. order) :-0.8901007E+03  (-0.8444507E+03)
 number of electron     120.0000000 magnetization 
 augmentation part      120.0000000 magnetization 

 Free energy of the ion-electron system (eV)
  ---------------------------------------------------
  alpha Z        PSCENC =       469.93789783
  Ewald energy   TEWEN  =     -8368.08044969
  -1/2 Hartree   DENC   =     -2016.62657175
  -exchange  EXHF       =         0.00000000
  -V(xc)+E(xc)   XCENC  =       226.70934731
  PAW double counting   =      842     EDDAV:  cpu time   17.77: real time   17.85
       DOS:  cpu time    0.00: real time    0.00
    CHARGE:  cpu time    1.71: real time    1.71
    MIXING:  cpu time    0.00: real time    0.00
    --------------------------------------------
      LOOP:  cpu time   19.50: real time   19.60

 eigenvalue-minimisations  :  8016
 total energy-change (2. order) : 0.4395256E-03  (-0.7706891E-04)
 number of electron     120.0000047 magnetization 
 augmentation part       42.0514741 magnetization 

 Broyden mixing:
  rms(total) = 0.40353E-02    rms(broyden)= 0.40352     EDDAV:  cpu time   20.12: real time   20.19
       DOS:  cpu time    0.00: real time    0.00
    --------------------------------------------
      LOOP:  cpu time   20.12: real time   20.20

 eigenvalue-minimisations  :  9392
 total energy-change (2. order) :-0.5673621E+02  (-0.5559821E+02)
 number of electron     120.0000000 magnetization 
 augmentation part      120.0000000 magnetization 

 Free energy of the ion-electron system (eV)
  ---------------------------------------------------
  alpha Z        PSCENC =       469.93789783
  Ewald energy   TEWEN  =     -8368.08044969
  -1/2 Hartree   DENC   =     -2016.62657175
  -exchange  EXHF       =         0.00000000
  -V(xc)+E(xc)   XCENC  =       226.70934731
  PAW double counting   =      8425.20891108    -8325.26067934
  entropy T*S    EENTRO =         0.00211612
  eigenvalues    EBANDS =      -217.29396102
  atomic energy  EATOM  =      9754.20957531
  ---------------------------------------------------
  free energy    TOTEN  =       -51.19381414 eV

  energy without entropy =      -51.19593027  energy(sigma->0) =      -51.19451952
-


    POTLOK:  cpu time    0.02: real time    0.03
    SETDIJ:  cpu time    0.00: real time    0.00
     EDDAV:  cpu time   18.67: real time   18.76
       DOS:  cpu time    0.00: real time    0.00
    CHARGE:  cpu time    1.70: real time    1.70
    MIXING:  cpu time    0.00: real time    0.00
    -----------------     EDDAV:  cpu time   22.21: real time   22.27
       DOS:  cpu time    0.00: real time    0.00
    --------------------------------------------
      LOOP:  cpu time   22.21: real time   22.28

 eigenvalue-minimisations  : 10688
 total energy-change (2. order) :-0.5579816E+01  (-0.5516766E+01)
 number of electron     120.0000000 magnetization 
 augmentation part      120.0000000 magnetization 

 Free energy of the ion-electron system (eV)
  ---------------------------------------------------
  alpha Z        PSCENC =       469.93789783
  Ewald energy   TEWEN  =     -8368.08044969
  -1/2 Hartree   DENC   =     -2016.62657175
  -exchange  EXHF       =         0.00000000
  -V(xc)+E(xc)   XCENC  =       226.70934731
  PAW double counting   =      8425.20891108    -8325.26067934
  entropy T*S    EENTRO =        -0.00494909
  eigenvalues    EBANDS =      -222.86671176
  atomic energy  EATOM  =      9754.20957531
  ---------------------------------------------------
  free energy    TOTEN  =       -56.77363010 eV

  energy without entropy =      -56.76868101  energy(sigma->0) =      -56.77198040
------------
  free energy    TOTEN  =       -49.87741409 eV

  energy without entropy =      -49.88259894  energy(sigma->0) =      -49.87914237


--------------------------------------------------------------------------------------------------------




----------------------------------------- Iteration    8(   6)  ---------------------------------------


    POTLOK:  cpu time    0.02: real time    0.03
    SETDIJ:  cpu time    0.00: real time    0.00
     EDDAV:  cpu time   18.90: real time   18.99
       DOS:  cpu time    0.00: real time    0.00
    CHARGE:  cpu time    1.71: real time    1.72
    MIXING:  cpu time    0.00: real time    0.00
    -----------------     EDDAV:  cpu time   18.84: real time   18.89
       DOS:  cpu time    0.00: real time    0.00
    CHARGE:  cpu time    1.68: real time    1.69
    MIXING:  cpu time    0.00: real time    0.01
    --------------------------------------------
      LOOP:  cpu time   20.52: real time   20.59

 eigenvalue-minimisations  :  8656
 total energy-change (2. order) :-0.1064947E+00  (-0.1064896E+00)
 number of electron     120.0000056 magnetization 
 augmentation part       39.1355817 magnetization 

 Broyden mixing:
  rms(total) = 0.18648E+01    rms(broyden)= 0.18648E+01
  rms(prec ) = 0.27342E+01
  weight for this iteration     100.00

 Free energy of the ion-electron system (eV)
  ---------------------------------------------------
  alpha Z        PSCENC =       469.93789783
  Ewald energy   TEWEN  =     -8368.08044969
  -1/2 Hartree   DENC   =     -2016.62657175
  -exchange  EXHF       =         0.00000000
  -V(xc)+E(xc)   XCENC  =       226.70934731
  PAW double counting   =      8425.20891108    -8325.26067934
  entropy T*S    EENTRO =        -0.00505788
  eigenvalues    EBANDS =      -222.97309768
  atomic energy  EATOM  =      9754.20957531
  ---------------------------------------------------
  free energy    TOTEN  =       -56.88012481 eV

  energy without entropy =      -56.87506693  energy(sigma->0) =      -56.87843885
---------------------




----------------------------------------- Iteration    8(   7)  ---------------------------------------


    POTLOK:  cpu time    0.02: real time    0.03
    SETDIJ:  cpu time    0.00: real time    0.00
     EDDAV:  cpu time   17.38: real time   17.47
       DOS:  cpu time    0.00: real time    0.00
    CHARGE:  cpu time    1.71: real time    1.72
    MIXING:  cpu time    0.00: real time    0.00
    --------------------------------------------
      LOOP:  cpu time   19.12: real time   19.22

 eigenvalue-minimisa     EDDAV:  cpu time   17.86: real time   17.91
       DOS:  cpu time    0.00: real time    0.00
    CHARGE:  cpu time    1.71: real time    1.71
    MIXING:  cpu time    0.00: real time    0.00
    --------------------------------------------
      LOOP:  cpu time   19.59: real time   19.66

 eigenvalue-minimisations  :  8032
 total energy-change (2. order) : 0.6851578E+01  (-0.3008420E+01)
 number of electron     120.0000058 magnetization 
 augmentation part       42.1186790 magnetization 

 Broyden mixing:
  rms(total) = 0.13164E+01    rms(broyden)= 0.13164E+01
  rms(prec ) = 0.13420E+01
  weight for this iteration     100.00

 eigenvalues of (default mixing * dielectric matrix)
  average eigenvalue GAMMA=   0.7772
  0.7772

 Free energy of the ion-electron system (eV)
  ---------------------------------------------------
  alpha Z        PSCENC =       469.93789783
  Ewald energy   TEWEN  =     -8368.08044969
  -1/2 Hartree   DENC   =     -1869.63366475
  -exchange  EXHF       =         0.00000000
  -V(xc)+E(xc)   XCENC  =       221.12188248
  PAW double counting   =      8712.89581127    -8626.42600557
  entropy T*S    EENTRO =         0.00252729
  eigenvalues    EBANDS =      -344.05612118
  atomic energy  EATOM  =      9754.20957531
  ---------------------------------------------------
  free energy    TOTEN  =       -50.02854702 eV

  energy without entropy =      -50.03107430  energy(sigma->0) =      -50.02938945
J:  cpu time    0.00: real time    0.00
     EDDAV:  cpu time   13.57: real time   13.63
       DOS:  cpu time    0.00: real time    0.00
    --------------------------------------------
      LOOP:  cpu time   13.60: real time   13.67

 eigenvalue-minimisations  :  5360
 total energy-change (2. order) :-0.4056164E-07  (-0.4248337E-08)
 number of electr     EDDAV:  cpu time   17.36: real time   17.40
       DOS:  cpu time    0.00: real time    0.00
    CHARGE:  cpu time    1.74: real time    1.75
    MIXING:  cpu time    0.00: real time    0.00
    --------------------------------------------
      LOOP:  cpu time   19.13: real time   19.19

 eigenvalue-minimisations  :  7760
 total energy-change (2. order) : 0.8650187E-01  (-0.1671470E+00)
 number of electron     120.0000059 magnetization 
 augmentation part       42.0999233 magnetization 

 Broyden mixing:
  rms(total) = 0.73164E+00    rms(broyden)= 0.73163E+00
  rms(prec ) = 0.73538E+00
  weight for this iteration     100.00

 eigenvalues of (default mixing * dielectric matrix)
  average eigenvalue GAMMA=   1.4090
  0.9578  1.8603

 Free energy of the ion-electron system (eV)
  ---------------------------------------------------
  alpha Z        PSCENC =       469.93789783
  Ewald energy   TEWEN  =     -8368.08044969
  -1/2 Hartree   DENC   =     -1871.67017353
  -exchange  EXHF       =         0.00000000
  -V(xc)+E(xc)   XCENC  =       221.07154543
  PAW double counting   =      9036.10538378    -8954.54159590
  entropy T*S    EENTRO =         0.00284013
  eigenvalues    EBANDS =      -336.97706851
  atomic energy  EATOM  =      9754.20957531
  ---------------------------------------------------
  free energy    TOTEN  =       -49.94204514 eV

  energy without entropy =      -49.94488527  energy(sigma->0) =      -49.94299185
No.  band energies     occupation 
      1     -39.9222      2.00000
      2     -39.9151      2.00000
      3     -39.7860      2.00000
      4     -39.6516      2.00000
      5     -39.6512      2.00000
      6     -39.6055      2.00000
      7     -39.5907      2.00000
      8      -1.9423      2.00000
      9      -0.6496      2.00000
     10      -0.1259      2.00000
     11       0.1739      2.00000
     12       0.2623      2.00000
     13       0.2933      2.00000
     14       0.4398      2.00000
     15       0.5348      2.00000
     16       0.6073      2.00000
     17       0.6333      2.00000
     18       0.6699      2.00000
     19       0.7439      2.00000
     20       0.8950      2.00000
     21       0.9403      2.00000
     22       1.0544      2.00000
     23       1.0980      2.00000
     24       1.1882      2.00000
     25       1.2195      2.00000
     26       1.2824      2.00000
     27       1.3149      2.00000
     28       1.5824      2.00000
     29       1.6543      2.00000
     30       1.7114      2.00000
     31       1.7396      2.00000
     32       1.7898      2.00000
     33       1.9204      2.00000
     34       1.9404      2.00000
     35       2.1481      2.00000
     36       2.1771      2.00000
     37       2.2723      2.00000
     38       2.3171      2.00000
     39       2.4468      2.00000
     40       2.5365      2.00000
     41       2.5876      2.00000
     42       2.6409      2.00000
     43       2.7258      2.00000
     44       2.8666      2.00000
     45       2.8754      2.00000
     46       2.9078      2.00000
     47       3.0025      2.00000
     48       3.0437      2.00000
     49       3.1015      2.00000
     50       3.1333      2.00000
     51       3.3275      2.00000
     52       3.3875      2.00000
     53       3.5013      2.00000
     54       3.5854      2.00000
     55       3.8885      2.00000
     56       4.0753      2.00000
     57       4.2322      2.00000
     58       4.2332      2.00000
     59       4.9523      2.00000
     60       5.6235      2.01674
     61       6.2848     -0.06842
     62       8.1984     -0.00000
     63       8.3004     -0.00000
     64       8.3214     -0.00000
     65       8.9382     -0.00000
     66       9.6697     -0.00000
     67      10.3927     -0.00000
     68      10.7373     -0.00000
     69      11.4859      0.00000
     70      11.7677      0.00000
     71      11.8269      0.00000
     72      12.0641      0.00000
     73      12.2752      0.00000
     74      12.3423      0.00000
     75      12.5204      0.00000
     76      12.7970      0.00000
     77      13.3017      0.00000
     78      13.6604      0.00000
     79      13.7954      0.00000
     80      14.6406      0.00000

 k-point   2 :       0.1429    0.0000    0.1250
  band No.  band energies     occupation 
      1     -39.9218      2.00000
      2     -39.9154      2.00000
      3     -39.7858      2.00000
      4     -39.6515      2.00000
      5     -39.6511      2.00000
      6     -39.6048      2.00000
      7     -39.5914      2.00000
      8      -1.6700      2.00000
      9      -0.5718      2.00000
     10      -0.2722      2.00000
     11       0.2656      2.00000
     12       0.2811      2.00000
     13       0.3887      2.00000
     14       0.4662      2.00000
     15       0.6025      2.00000
     16       0.6140      2.00000
     17       0.7318      2.00000
     18       0.8258      2.00000
     19       0.9098      2.00000
     20       0.9359      2.00000
     21       0.9748      2.00000
     22       1.0997      2.00000
     23       1.1171      2.00000
     24       1.1988      2.00000
     25       1.2498      2.00000
     26       1.3525      2.00000
     27       1.3794      2.00000
     28       1.4963      2.00000
     29       1.6279      2.00000
     30       1.6657      2.00000
     31       1.7526      2.00000
     32       1.8233      2.00000
     33       1.8551      2.00000
     34       2.0129      2.00000
     35       2.0315      2.00000
     36       2.1723      2.00000
     37       2.2550      2.00000
     38       2.3603      2.00000
     39       2.4545      2.00000
     40       2.5042      2.00000
     41       2.5656      2.00000
     42       2.6082      2.00000
     43       2.6858      2.00000
     44       2.7366      2.00000
     45       2.8040      2.00000
     46       2.8227      2.00000
     47       2.9262      2.00000
     48       3.0528      2.00000
     49       3.1143      2.00000
     50       3.1982      2.00000
     51       3.2390      2.00000
     52       3.2742      2.00000
     53       3.4187      2.00000
     54       3.6168      2.00000
     55       3.7110      2.00000
     56       3.8501      2.00000
     57       4.0966      2.00000
     58       4.5861      2.00000
     59       5.5150      2.00204
     60       6.2852     -0.06833
     61       6.7932     -0.00000
     62       7.1030     -0.00000
     63       7.7177     -0.00000
     64       8.1699     -0.00000
     65       8.5814     -0.00000
     66       8.7209     -0.00000
     67       9.6428     -0.00000
     68      10.3014     -0.00000
     69      10.6191     -0.00000
     70      10.6695     -0.00000
     71      11.1361     -0.00000
     72      11.7260      0.00000
     73      12.5558      0.00000
     74      12.9484      0.00000
     75      13.2335      0.00000
     76      13.3064      0.00000
     77      13.4805      0.00000
     78      13.8570      0.00000
     79      14.4486      0.00000
     80      14.7206      0.00000

 k-point   3 :       0.2857    0.0000    0.1250
  band No.  band energies     occupation 
      1     -39.9207      2.00000
      2     -39.9163      2.00000
      3     -39.7855      2.00000
      4     -39.6514      2.00000
      5     -39.6511      2.00000
      6     -39.6029      2.00000
      7     -39.5935      2.00000
      8      -1.0292      2.00000
      9      -0.4117      2.00000
     10      -0.1243      2.00000
     11       0.3212      2.00000
     12       0.4230      2.00000
     13       0.5011      2.00000
     14       0.5883      2.00000
     15       0.6480      2.00000
     16       0.7370      2.00000
     17       0.8409      2.00000
     18       0.9172      2.00000
     19       0.9993      2.00000
     20       1.0435      2.00000
     21       1.0754      2.00000
     22       1.1747      2.00000
     23       1.2275      2.00000
     24       1.2806      2.00000
     25       1.3133      2.00000
     26       1.3601      2.00000
     27       1.4562      2.00000
     28       1.5545      2.00000
     29       1.6048      2.00000
     30       1.7263      2.00000
     31       1.8118      2.00000
     32       1.8606      2.00000
     33       1.9591      2.00000
     34       2.0175      2.00000
     35       2.1085      2.00000
     36       2.1257      2.00000
     37       2.1890      2.00000
     38       2.2538      2.00000
     39       2.3101      2.00000
     40       2.4024      2.00000
     41       2.4908      2.00000
     42       2.5386      2.00000
     43       2.6562      2.00000
     44       2.6961      2.00000
     45       2.7445      2.00000
     46       2.7948      2.00000
     47       2.8417      2.00000
     48       2.9270      2.00000
     49       3.0145      2.00000
     50       3.1007      2.00000
     51       3.1444      2.00000
     52       3.2384      2.00000
     53       3.3668      2.00000
     54       3.4577      2.00000
     55       3.5819      2.00000
     56       3.8221      2.00000
     57       4.6154      2.00000
     58       5.0063      2.00000
     59       5.4491      2.00041
     60       5.7836      2.07041
     61       6.4840     -0.00505
     62       6.8394     -0.00000
     63       6.9890     -0.00000
     64       7.5341     -0.00000
     65       7.9958     -0.00000
     66       8.3423     -0.00000
     67       8.6973     -0.00000
     68       9.4280     -0.00000
     69       9.8073     -0.00000
     70      10.3610     -0.00000
     71      10.4762     -0.00000
     72      10.7937     -0.00000
     73      11.4063     -0.00000
     74      12.1902      0.00000
     75      13.1286      0.00000
     76      13.7004      0.00000
     77      13.7616      0.00000
     78      13.8917      0.00000
     79      14.2833      0.00000
     80      14.6983      0.00000

 k-point   4 :       0.4286    0.0000    0.1250
  band No.  band energies     occupation 
      1     -39.9192      2.00000
      2     -39.9177      2.00000
      3     -39.7852      2.00000
      4     -39.6512      2.00000
      5     -39.6510      2.00000
      6     -39.6000      2.00000
      7     -39.5966      2.00000
      8      -0.3876      2.00000
      9      -0.1087      2.00000
     10       0.0928      2.00000
     11       0.1657      2.00000
     12       0.4867      2.00000
     13       0.5089      2.00000
     14       0.5613      2.00000
     15       0.6361      2.00000
     16       0.8276      2.00000
     17       0.9203      2.00000
     18       0.9340      2.00000
     19       1.1122      2.00000
     20       1.1682      2.00000
     21       1.1852      2.00000
     22       1.2716      2.00000
     23       1.3715      2.00000
     24       1.3925      2.00000
     25       1.4091      2.00000
     26       1.4779      2.00000
     27       1.5163      2.00000
     28       1.6473      2.00000
     29       1.6842      2.00000
     30       1.7364      2.00000
     31       1.8034      2.00000
     32       1.9119      2.00000
     33       1.9557      2.00000
     34       2.0640      2.00000
     35       2.1453      2.00000
     36       2.1626      2.00000
     37       2.1857      2.00000
     38       2.2818      2.00000
     39       2.3167      2.00000
     40       2.3720      2.00000
     41       2.4658      2.00000
     42       2.4807      2.00000
     43       2.5520      2.00000
     44       2.6421      2.00000
     45       2.6755      2.00000
     46       2.7606      2.00000
     47       2.8022      2.00000
     48       2.8400      2.00000
     49       2.9250      2.00000
     50       3.0636      2.00000
     51       3.1637      2.00000
     52       3.2733      2.00000
     53       3.3668      2.00000
     54       3.5574      2.00000
     55       3.6436      2.00000
     56       3.8235      2.00000
     57       4.1470      2.00000
     58       4.2979      2.00000
     59       5.1367      2.00000
     60       5.8649      1.96872
     61       6.0582      0.68797
     62       6.1735      0.03932
     63       6.8188     -0.00000
     64       7.0772     -0.00000
     65       7.6712     -0.00000
     66       8.2271     -0.00000
     67       8.4933     -0.00000
     68       8.8354     -0.00000
     69       9.4883     -0.00000
     70       9.7783     -0.00000
     71      10.5321     -0.00000
     72      10.9699     -0.00000
     73      11.1357     -0.00000
     74      11.7865      0.00000
     75      12.2819      0.00000
     76      12.7709      0.00000
     77      13.4158      0.00000
     78      13.7849      0.00000
     79      13.9694      0.00000
     80      14.6534      0.00000

 k-point   5 :      -0.4286   -0.0000    0.1250
  band No.  band energies     occupation 
      1     -39.9193      2.00000
      2     -39.9176      2.00000
      3     -39.7852      2.00000
      4     -39.6512      2.00000
      5     -39.6510      2.00000
      6     -39.5999      2.00000
      7     -39.5966      2.00000
      8      -0.4427      2.00000
      9      -0.1781      2.00000
     10       0.0391      2.00000
     11       0.1397      2.00000
     12       0.5034      2.00000
     13       0.5288      2.00000
     14       0.7049      2.00000
     15       0.7414      2.00000
     16       0.8752      2.00000
     17       0.9154      2.00000
     18       0.9910      2.00000
     19       1.0681      2.00000
     20       1.0885      2.00000
     21       1.2428      2.00000
     22       1.2832      2.00000
     23       1.3296      2.00000
     24       1.3866      2.00000
     25       1.3938      2.00000
     26       1.4466      2.00000
     27       1.4954      2.00000
     28       1.6714      2.00000
     29       1.7036      2.00000
     30       1.7459      2.00000
     31       1.8056      2.00000
     32       1.8773      2.00000
     33       1.9078      2.00000
     34       2.0439      2.00000
     35       2.0826      2.00000
     36       2.1459      2.00000
     37       2.1636      2.00000
     38       2.2319      2.00000
     39       2.3404      2.00000
     40       2.4424      2.00000
     41       2.4639      2.00000
     42       2.5433      2.00000
     43       2.5852      2.00000
     44       2.6258      2.00000
     45       2.6805      2.00000
     46       2.7366      2.00000
     47       2.8078      2.00000
     48       2.8508      2.00000
     49       2.9126      2.00000
     50       3.0992      2.00000
     51       3.1837      2.00000
     52       3.2080      2.00000
     53       3.5208      2.00000
     54       3.5539      2.00000
     55       3.7448      2.00000
     56       4.2057      2.00000
     57       4.3917      2.00000
     58       4.5669      2.00000
     59       4.7201      2.00000
     60       5.1911      2.00000
     61       5.6185      2.01543
     62       6.0856      0.48116
     63       6.1064      0.34314
     64       7.1116     -0.00000
     65       8.2664     -0.00000
     66       8.3966     -0.00000
     67       8.9093     -0.00000
     68       9.1578     -0.00000
     69       9.2554     -0.00000
     70       9.9650     -0.00000
     71      10.4716     -0.00000
     72      10.6052     -0.00000
     73      11.3646     -0.00000
     74      11.9252      0.00000
     75      12.5812      0.00000
     76      13.1571      0.00000
     77      13.5258      0.00000
     78      13.8799      0.00000
     79      14.1333      0.00000
     80      14.4645      0.00000

 k-point   6 :      -0.2857   -0.0000    0.1250
  band No.  band energies     occupation 
      1     -39.9208      2.00000
      2     -39.9163      2.00000
      3     -39.7855      2.00000
      4     -39.6513      2.00000
      5     -39.6511      2.00000
      6     -39.6028      2.00000
      7     -39.5936      2.00000
      8      -1.1603      2.00000
      9      -0.4791      2.00000
     10       0.0257      2.00000
     11       0.1496      2.00000
     12       0.5212      2.00000
     13       0.5893      2.00000
     14       0.6538      2.00000
     15       0.6906      2.00000
     16       0.8201      2.00000
     17       0.8374      2.00000
     18       0.8716      2.00000
     19       0.9601      2.00000
     20       1.0877      2.00000
     21       1.1298      2.00000
     22       1.1871      2.00000
     23       1.2107      2.00000
     24       1.3062      2.00000
     25       1.3392      2.00000
     26       1.3954      2.00000
     27       1.4442      2.00000
     28       1.4792      2.00000
     29       1.6403      2.00000
     30       1.7374      2.00000
     31       1.7629      2.00000
     32       1.8418      2.00000
     33       1.9029      2.00000
     34       1.9630      2.00000
     35       2.0591      2.00000
     36       2.1606      2.00000
     37       2.2259      2.00000
     38       2.2973      2.00000
     39       2.3628      2.00000
     40       2.4407      2.00000
     41       2.5199      2.00000
     42       2.5574      2.00000
     43       2.6067      2.00000
     44       2.6569      2.00000
     45       2.7700      2.00000
     46       2.7946      2.00000
     47       2.8789      2.00000
     48       2.8890      2.00000
     49       3.0469      2.00000
     50       3.0924      2.00000
     51       3.1384      2.00000
     52       3.2127      2.00000
     53       3.3235      2.00000
     54       3.5308      2.00000
     55       3.7004      2.00000
     56       4.1011      2.00000
     57       4.4590      2.00000
     58       4.8458      2.00000
     59       5.4990      2.00141
     60       5.7007      2.04614
     61       6.0859      0.47918
     62       6.3622     -0.03640
     63       6.9749     -0.00000
     64       7.1820     -0.00000
     65       7.5844     -0.00000
     66       8.2261     -0.00000
     67       8.9852     -0.00000
     68       9.2572     -0.00000
     69      10.2486     -0.00000
     70      11.0523     -0.00000
     71      11.3112     -0.00000
     72      11.6889      0.00000
     73      12.1226      0.00000
     74      12.3695      0.00000
     75      12.7933      0.00000
     76      13.4255      0.00000
     77      13.6359      0.00000
     78      13.9071      0.00000
     79      14.2962      0.00000
     80      14.4209      0.00000

 k-point   7 :      -0.1429   -0.0000    0.1250
  band No.  band energies     occupation 
      1     -39.9218      2.00000
      2     -39.9154      2.00000
      3     -39.7858      2.00000
      4     -39.6515      2.00000
      5     -39.6512      2.00000
      6     -39.6048      2.00000
      7     -39.5915      2.00000
      8      -1.7542      2.00000
      9      -0.6342      2.00000
     10       0.0417      2.00000
     11       0.1821      2.00000
     12       0.3302      2.00000
     13       0.3436      2.00000
     14       0.4062      2.00000
     15       0.6267      2.00000
     16       0.6475      2.00000
     17       0.7342      2.00000
     18       0.8133      2.00000
     19       0.8850      2.00000
     20       0.9086      2.00000
     21       1.0617      2.00000
     22       1.0660      2.00000
     23       1.1504      2.00000
     24       1.2186      2.00000
     25       1.2792      2.00000
     26       1.3025      2.00000
     27       1.3323      2.00000
     28       1.4635      2.00000
     29       1.6624      2.00000
     30       1.6820      2.00000
     31       1.7707      2.00000
     32       1.8297      2.00000
     33       1.9008      2.00000
     34       1.9270      2.00000
     35       2.0809      2.00000
     36       2.1584      2.00000
     37       2.2828      2.00000
     38       2.3334      2.00000
     39       2.3823      2.00000
     40       2.4871      2.00000
     41       2.5242      2.00000
     42       2.6194      2.00000
     43       2.7405      2.00000
     44       2.7964      2.00000
     45       2.8269      2.00000
     46       2.8727      2.00000
     47       2.9358      2.00000
     48       3.0247      2.00000
     49       3.0932      2.00000
     50       3.1243      2.00000
     51       3.2121      2.00000
     52       3.2685      2.00000
     53       3.4376      2.00000
     54       3.6779      2.00000
     55       3.7896      2.00000
     56       3.9494      2.00000
     57       4.1256      2.00000
     58       4.8625      2.00000
     59       5.0468      2.00000
     60       5.5605      2.00538
     61       6.7276     -0.00001
     62       7.1790     -0.00000
     63       7.7285     -0.00000
     64       8.2281     -0.00000
     65       8.7076     -0.00000
     66       8.9770     -0.00000
     67       9.3921     -0.00000
     68      10.1931     -0.00000
     69      10.7697     -0.00000
     70      10.8377     -0.00000
     71      11.4242     -0.00000
     72      12.4781      0.00000
     73      12.8971      0.00000
     74      13.0679      0.00000
     75      13.2713      0.00000
     76      13.4477      0.00000
     77      13.8149      0.00000
     78      13.8855      0.00000
     79      14.3090      0.00000
     80      14.4277      0.00000

 k-point   8 :       0.0000    0.3333    0.1250
  band No.  band energies     occupation 
      1     -39.9222      2.00000
      2     -39.9150      2.00000
      3     -39.7860      2.00000
      4     -39.6517      2.00000
      5     -39.6511      2.00000
      6     -39.6055      2.00000
      7     -39.5907      2.00000
      8      -1.8612      2.00000
      9      -0.8975      2.00000
     10      -0.0288      2.00000
     11       0.1675      2.00000
     12       0.2095      2.00000
     13       0.2953      2.00000
     14       0.4328      2.00000
     15       0.5817      2.00000
     16       0.6122      2.00000
     17       0.6231      2.00000
     18       0.6871      2.00000
     19       0.7740      2.00000
     20       0.8424      2.00000
     21       0.9333      2.00000
     22       1.0380      2.00000
     23       1.0801      2.00000
     24       1.2492      2.00000
     25       1.3015      2.00000
     26       1.3957      2.00000
     27       1.4196      2.00000
     28       1.5882      2.00000
     29       1.6073      2.00000
     30       1.6486      2.00000
     31       1.7029      2.00000
     32       1.8057      2.00000
     33       1.8863      2.00000
     34       1.9444      2.00000
     35       2.1657      2.00000
     36       2.2263      2.00000
     37       2.2286      2.00000
     38       2.2942      2.00000
     39       2.4445      2.00000
     40       2.5002      2.00000
     41       2.6181      2.00000
     42       2.6607      2.00000
     43       2.6708      2.00000
     44       2.8216      2.00000
     45       2.8393      2.00000
     46       2.8828      2.00000
     47       2.9077      2.00000
     48       3.0607      2.00000
     49       3.1096      2.00000
     50       3.1506      2.00000
     51       3.3191      2.00000
     52       3.3681      2.00000
     53       3.4569      2.00000
     54       3.6336      2.00000
     55       3.9533      2.00000
     56       4.2249      2.00000
     57       4.2344      2.00000
     58       4.3501      2.00000
     59       4.8990      2.00000
     60       6.2838     -0.06867
     61       6.4956     -0.00398
     62       6.9187     -0.00000
     63       7.2093     -0.00000
     64       8.8165     -0.00000
     65       9.5484     -0.00000
     66       9.7181     -0.00000
     67       9.8957     -0.00000
     68      10.9836     -0.00000
     69      11.2022     -0.00000
     70      11.2964     -0.00000
     71      11.4628     -0.00000
     72      12.3154      0.00000
     73      12.6931      0.00000
     74      13.1358      0.00000
     75      13.3997      0.00000
     76      13.5207      0.00000
     77      13.8223      0.00000
     78      13.9986      0.00000
     79      14.2762      0.00000
     80      14.5304      0.00000

 k-point   9 :       0.1429    0.3333    0.1250
  band No.  band energies     occupation 
      1     -39.9218      2.00000
      2     -39.9154      2.00000
      3     -39.7858      2.00000
      4     -39.6516      2.00000
      5     -39.6511      2.00000
      6     -39.6048      2.00000
      7     -39.5914      2.00000
      8      -1.5804      2.00000
      9      -0.8176      2.00000
     10      -0.1461      2.00000
     11       0.2276      2.00000
     12       0.2681      2.00000
     13       0.4240      2.00000
     14       0.5049      2.00000
     15       0.5778      2.00000
     16       0.6207      2.00000
     17       0.6880      2.00000
     18       0.7865      2.00000
     19       0.8857      2.00000
     20       0.9583      2.00000
     21       0.9839      2.00000
     22       1.0522      2.00000
     23       1.1550      2.00000
     24       1.2174      2.00000
     25       1.2929      2.00000
     26       1.3696      2.00000
     27       1.4005      2.00000
     28       1.5317      2.00000
     29       1.5640      2.00000
     30       1.6198      2.00000
     31       1.6712      2.00000
     32       1.8884      2.00000
     33       1.9685      2.00000
     34       2.0205      2.00000
     35       2.1596      2.00000
     36       2.1850      2.00000
     37       2.2672      2.00000
     38       2.3162      2.00000
     39       2.3632      2.00000
     40       2.3883      2.00000
     41       2.4464      2.00000
     42       2.6528      2.00000
     43       2.6713      2.00000
     44       2.7752      2.00000
     45       2.7929      2.00000
     46       2.8418      2.00000
     47       2.9824      2.00000
     48       3.0098      2.00000
     49       3.1183      2.00000
     50       3.1762      2.00000
     51       3.1897      2.00000
     52       3.3087      2.00000
     53       3.4569      2.00000
     54       3.6451      2.00000
     55       3.7020      2.00000
     56       3.8907      2.00000
     57       4.4392      2.00000
     58       4.9033      2.00000
     59       5.5495      2.00431
     60       5.8555      1.99274
     61       6.5067     -0.00315
     62       7.0426     -0.00000
     63       7.5221     -0.00000
     64       8.0677     -0.00000
     65       8.3161     -0.00000
     66       8.9215     -0.00000
     67       9.4102     -0.00000
     68       9.6737     -0.00000
     69      10.4612     -0.00000
     70      12.0120      0.00000
     71      12.3053      0.00000
     72      12.3984      0.00000
     73      12.5630      0.00000
     74      12.7249      0.00000
     75      12.8510      0.00000
     76      13.3184      0.00000
     77      13.6049      0.00000
     78      13.9254      0.00000
     79      14.0043      0.00000
     80      14.4196      0.00000

 k-point  10 :       0.2857    0.3333    0.1250
  band No.  band energies     occupation 
      1     -39.9207      2.00000
      2     -39.9163      2.00000
      3     -39.7855      2.00000
      4     -39.6514      2.00000
      5     -39.6511      2.00000
      6     -39.6029      2.00000
      7     -39.5935      2.00000
      8      -1.0245      2.00000
      9      -0.3861      2.00000
     10      -0.1331      2.00000
     11       0.3215      2.00000
     12       0.3992      2.00000
     13       0.4957      2.00000
     14       0.5340      2.00000
     15       0.6730      2.00000
     16       0.7803      2.00000
     17       0.8152      2.00000
     18       0.9344      2.00000
     19       0.9425      2.00000
     20       1.0264      2.00000
     21       1.0735      2.00000
     22       1.1635      2.00000
     23       1.2183      2.00000
     24       1.3052      2.00000
     25       1.3514      2.00000
     26       1.4119      2.00000
     27       1.4756      2.00000
     28       1.5471      2.00000
     29       1.6131      2.00000
     30       1.7512      2.00000
     31       1.8240      2.00000
     32       1.8855      2.00000
     33       1.9252      2.00000
     34       1.9892      2.00000
     35       2.0401      2.00000
     36       2.0819      2.00000
     37       2.1389      2.00000
     38       2.2161      2.00000
     39       2.3089      2.00000
     40       2.4644      2.00000
     41       2.5025      2.00000
     42       2.5643      2.00000
     43       2.6213      2.00000
     44       2.6798      2.00000
     45       2.7963      2.00000
     46       2.8236      2.00000
     47       2.8754      2.00000
     48       2.9229      2.00000
     49       2.9733      2.00000
     50       3.0836      2.00000
     51       3.1715      2.00000
     52       3.2476      2.00000
     53       3.2842      2.00000
     54       3.4720      2.00000
     55       3.6083      2.00000
     56       4.0076      2.00000
     57       4.4769      2.00000
     58       5.2548      2.00000
     59       5.6811      2.03727
     60       5.8973      1.85471
     61       6.2931     -0.06612
     62       6.5270     -0.00201
     63       6.6997     -0.00002
     64       7.4435     -0.00000
     65       7.6907     -0.00000
     66       8.1053     -0.00000
     67       9.1361     -0.00000
     68       9.8301     -0.00000
     69       9.9535     -0.00000
     70      10.1204     -0.00000
     71      11.1044     -0.00000
     72      11.1935     -0.00000
     73      11.7651      0.00000
     74      12.0699      0.00000
     75      12.4230      0.00000
     76      12.7746      0.00000
     77      13.2934      0.00000
     78      13.6800      0.00000
     79      14.0694      0.00000
     80      14.4171      0.00000

 k-point  11 :       0.4286    0.3333    0.1250
  band No.  band energies     occupation 
      1     -39.9192      2.00000
      2     -39.9177      2.00000
      3     -39.7852      2.00000
      4     -39.6512      2.00000
      5     -39.6510      2.00000
      6     -39.6000      2.00000
      7     -39.5966      2.00000
      8      -0.3886      2.00000
      9      -0.0849      2.00000
     10       0.0707      2.00000
     11       0.1470      2.00000
     12       0.4136      2.00000
     13       0.5195      2.00000
     14       0.6060      2.00000
     15       0.7149      2.00000
     16       0.8516      2.00000
     17       0.9049      2.00000
     18       0.9147      2.00000
     19       1.0960      2.00000
     20       1.1513      2.00000
     21       1.1829      2.00000
     22       1.2476      2.00000
     23       1.3143      2.00000
     24       1.3992      2.00000
     25       1.4609      2.00000
     26       1.4927      2.00000
     27       1.5973      2.00000
     28       1.6673      2.00000
     29       1.7131      2.00000
     30       1.7306      2.00000
     31       1.8366      2.00000
     32       1.8790      2.00000
     33       1.9584      2.00000
     34       1.9819      2.00000
     35       2.0730      2.00000
     36       2.1207      2.00000
     37       2.2342      2.00000
     38       2.3024      2.00000
     39       2.3472      2.00000
     40       2.3884      2.00000
     41       2.4559      2.00000
     42       2.5136      2.00000
     43       2.5262      2.00000
     44       2.6271      2.00000
     45       2.6921      2.00000
     46       2.7288      2.00000
     47       2.7935      2.00000
     48       2.8456      2.00000
     49       2.8733      2.00000
     50       3.0699      2.00000
     51       3.1408      2.00000
     52       3.2711      2.00000
     53       3.3263      2.00000
     54       3.4815      2.00000
     55       3.5892      2.00000
     56       3.7312      2.00000
     57       4.4124      2.00000
     58       4.7766      2.00000
     59       5.1320      2.00000
     60       5.6621      2.02943
     61       5.9454      1.58955
     62       6.2131     -0.04144
     63       6.5186     -0.00242
     64       6.7298     -0.00001
     65       7.7457     -0.00000
     66       8.0531     -0.00000
     67       8.5179     -0.00000
     68       9.3124     -0.00000
     69       9.7502     -0.00000
     70      10.1757     -0.00000
     71      10.8659     -0.00000
     72      10.9784     -0.00000
     73      11.3764     -0.00000
     74      11.5939      0.00000
     75      12.1268      0.00000
     76      12.4622      0.00000
     77      13.1269      0.00000
     78      13.4258      0.00000
     79      14.0310      0.00000
     80      14.2874      0.00000

 k-point  12 :      -0.4286    0.3333    0.1250
  band No.  band energies     occupation 
      1     -39.9193      2.00000
      2     -39.9177      2.00000
      3     -39.7853      2.00000
      4     -39.6513      2.00000
[...]
     39       2.2887      2.00000
     40       2.4384      2.00000
     41       2.4752      2.00000
     42       2.4819      2.00000
     43       2.5548      2.00000
     44       2.6223      2.00000
     45       2.6517      2.00000
     46       2.7029      2.00000
     47       2.7953      2.00000
     48       2.8026      2.00000
     49       2.8821      2.00000
     50       3.0913      2.00000
     51       3.1687      2.00000
     52       3.2513      2.00000
     53       3.4840      2.00000
     54       3.5656      2.00000
     55       3.6544      2.00000
     56       4.0664      2.00000
     57       4.5152      2.00000
     58       4.5659      2.00000
     59       4.8285      2.00000
     60       5.1692      2.00000
     61       5.6605      2.02823
     62       6.1413      0.16378
     63       6.4050     -0.02089
     64       7.5696     -0.00000
     65       7.7384     -0.00000
     66       8.0255     -0.00000
     67       8.4288     -0.00000
     68       8.9593     -0.00000
     69       9.6251     -0.00000
     70      10.2622     -0.00000
     71      10.3965     -0.00000
     72      11.2707     -0.00000
     73      11.6991      0.00000
     74      12.2999      0.00000
     75      12.4686      0.00000
     76      12.6347      0.00000
     77      13.3639      0.00000
     78      13.6171      0.00000
     79      14.1755      0.00000
     80      14.3081      0.00000

 k-point  41 :      -0.2857   -0.3333    0.3750
  band No.  band energies     occupation 
      1     -39.9154      2.00000
      2     -39.9109      2.00000
      3     -39.7743      2.00000
      4     -39.6531      2.00000
      5     -39.6529      2.00000
      6     -39.6146      2.00000
      7     -39.6052      2.00000
      8      -1.0481      2.00000
      9      -0.4635      2.00000
     10      -0.0824      2.00000
     11       0.3274      2.00000
     12       0.4412      2.00000
     13       0.5136      2.00000
     14       0.5654      2.00000
     15       0.6435      2.00000
     16       0.7481      2.00000
     17       0.8205      2.00000
     18       0.9197      2.00000
     19       0.9912      2.00000
     20       1.0240      2.00000
     21       1.0977      2.00000
     22       1.1817      2.00000
     23       1.2113      2.00000
     24       1.3120      2.00000
     25       1.3367      2.00000
     26       1.3582      2.00000
     27       1.4390      2.00000
     28       1.5045      2.00000
     29       1.6038      2.00000
     30       1.7671      2.00000
     31       1.8415      2.00000
     32       1.8628      2.00000
     33       1.9311      2.00000
     34       1.9910      2.00000
     35       2.0433      2.00000
     36       2.1223      2.00000
     37       2.1963      2.00000
     38       2.2638      2.00000
     39       2.3306      2.00000
     40       2.4531      2.00000
     41       2.4941      2.00000
     42       2.5123      2.00000
     43       2.6524      2.00000
     44       2.6843      2.00000
     45       2.7610      2.00000
     46       2.8049      2.00000
     47       2.8518      2.00000
     48       2.9261      2.00000
     49       3.0236      2.00000
     50       3.0834      2.00000
     51       3.1501      2.00000
     52       3.2185      2.00000
     53       3.3249      2.00000
     54       3.4894      2.00000
     55       3.6546      2.00000
     56       3.8534      2.00000
     57       4.7576      2.00000
     58       5.2146      2.00000
     59       5.3461      2.00002
     60       5.6006      2.01112
     61       6.3461     -0.04433
     62       6.5463     -0.00133
     63       7.2897     -0.00000
     64       7.3971     -0.00000
     65       7.6621     -0.00000
     66       8.0606     -0.00000
     67       8.8473     -0.00000
     68       9.6508     -0.00000
     69       9.9813     -0.00000
     70      10.5010     -0.00000
     71      10.6884     -0.00000
     72      11.0187     -0.00000
     73      11.3048     -0.00000
     74      12.4705      0.00000
     75      13.0361      0.00000
     76      13.3004      0.00000
     77      13.6001      0.00000
     78      14.1241      0.00000
     79      14.2323      0.00000
     80      14.8716      0.00000

 k-point  42 :      -0.1429   -0.3333    0.3750
  band No.  band energies     occupation 
      1     -39.9164      2.00000
      2     -39.9100      2.00000
      3     -39.7747      2.00000
      4     -39.6535      2.00000
      5     -39.6529      2.00000
      6     -39.6165      2.00000
      7     -39.6030      2.00000
      8      -1.4872      2.00000
      9      -0.7355      2.00000
     10      -0.3622      2.00000
     11       0.1617      2.00000
     12       0.2187      2.00000
     13       0.4626      2.00000
     14       0.5312      2.00000
     15       0.6050      2.00000
     16       0.6318      2.00000
     17       0.6643      2.00000
     18       0.8219      2.00000
     19       0.8789      2.00000
     20       0.9372      2.00000
     21       0.9735      2.00000
     22       0.9963      2.00000
     23       1.1461      2.00000
     24       1.1803      2.00000
     25       1.2465      2.00000
     26       1.3204      2.00000
     27       1.4387      2.00000
     28       1.5468      2.00000
     29       1.5950      2.00000
     30       1.6163      2.00000
     31       1.6903      2.00000
     32       1.8950      2.00000
     33       1.9677      2.00000
     34       2.0184      2.00000
     35       2.0939      2.00000
     36       2.1947      2.00000
     37       2.2591      2.00000
     38       2.3380      2.00000
     39       2.3588      2.00000
     40       2.4548      2.00000
     41       2.4754      2.00000
     42       2.6356      2.00000
     43       2.6766      2.00000
     44       2.7546      2.00000
     45       2.7805      2.00000
     46       2.8285      2.00000
     47       2.9658      2.00000
     48       2.9855      2.00000
     49       3.1193      2.00000
     50       3.1566      2.00000
     51       3.1986      2.00000
     52       3.3066      2.00000
     53       3.3825      2.00000
     54       3.6156      2.00000
     55       3.7848      2.00000
     56       3.8320      2.00000
     57       4.6184      2.00000
     58       5.1260      2.00000
     59       5.6751      2.03408
     60       6.1454      0.14544
     61       6.4447     -0.01092
     62       6.9250     -0.00000
     63       7.2638     -0.00000
     64       7.9470     -0.00000
     65       8.8940     -0.00000
     66       8.9943     -0.00000
     67       9.2183     -0.00000
     68       9.9880     -0.00000
     69      10.0516     -0.00000
     70      11.7117      0.00000
     71      11.9060      0.00000
     72      12.1255      0.00000
     73      12.2438      0.00000
     74      12.4611      0.00000
     75      12.8959      0.00000
     76      13.3041      0.00000
     77      13.5679      0.00000
     78      13.8175      0.00000
     79      13.9598      0.00000
     80      14.4597      0.00000


--------------------------------------------------------------------------------------------------------


 soft charge-density along one line, spin component           1
         0         1         2         3         4         5         6         7         8         9
 total charge-density along one line
 
 pseudopotential strength for first ion, spin component:           1
 -5.165  -0.000  -0.000  -0.003  -0.000  -5.376  -0.000  -0.000
 -0.000  -5.163  -0.003   0.001  -0.001  -0.000  -5.374  -0.003
 -0.000  -0.003  -5.166  -0.001  -0.007  -0.000  -0.003  -5.377
 -0.003   0.001  -0.001  -5.172   0.001  -0.003   0.001  -0.001
 -0.000  -0.001  -0.007   0.001  -5.153  -0.000  -0.001  -0.006
 -5.376  -0.000  -0.000  -0.003  -0.000  -5.569  -0.000  -0.000
 -0.000  -5.374  -0.003   0.001  -0.001  -0.000  -5.567  -0.003
 -0.000  -0.003  -5.377  -0.001  -0.006  -0.000  -0.003  -5.570
 -0.003   0.001  -0.001  -5.382   0.001  -0.003   0.001  -0.001
 -0.000  -0.001  -0.006   0.001  -5.363  -0.000  -0.001  -0.006
 -0.000   0.001   0.001   0.000   0.001  -0.000   0.001   0.001
 -0.001   0.002   0.001   0.000   0.001  -0.001   0.002   0.001
 -0.001  -0.000   0.001   0.000   0.003  -0.001  -0.000   0.001
  0.000  -0.002   0.001  -0.000   0.000   0.000  -0.002   0.001
 -0.000   0.000   0.000   0.000  -0.000  -0.001   0.000   0.000
 -0.001  -0.000   0.001   0.000   0.002  -0.001   0.000   0.001
  0.000  -0.002   0.001  -0.001   0.000   0.000  -0.002   0.001
 -0.001   0.000   0.000   0.000  -0.000  -0.002   0.000   0.000
 total augmentation occupancy for first ion, spin component:           1
  3.025   0.010   0.030   0.009   0.006  -1.172  -0.014  -0.025  -0.038  -0.014   0.018  -0.005  -0.012   0.007   0.357  -0.000
  0.010   3.077  -0.272   0.020  -0.174  -0.014  -1.062   0.226  -0.010   0.139  -0.064   0.011   0.000   0.173   0.008   0.000
  0.030  -0.272   2.661   0.008  -0.320  -0.025   0.226  -0.702  -0.018   0.235   0.083  -0.035  -0.112  -0.021  -0.004   0.006
  0.009   0.020   0.008   2.948   0.016  -0.038  -0.010  -0.018  -1.113  -0.007  -0.020   0.004   0.011   0.004  -0.023  -0.000
  0.006  -0.174  -0.320   0.016   3.079  -0.013   0.139   0.235  -0.007  -1.017  -0.144   0.069   0.045  -0.010   0.020   0.008
 -1.172  -0.014  -0.025  -0.038  -0.013   1.225   0.018   0.020   0.063   0.019  -0.016   0.005   0.012  -0.006  -0.290  -0.000
 -0.014  -1.062   0.226  -0.010   0.139   0.018   0.981  -0.182   0.003  -0.104   0.059  -0.013  -0.008  -0.138  -0.007   0.000
 -0.025   0.226  -0.702  -0.018   0.235   0.020  -0.182   0.681   0.026  -0.163  -0.091   0.046   0.084   0.025   0.002  -0.002
 -0.038  -0.010  -0.018  -1.113  -0.007   0.063   0.003   0.026   1.174   0.001   0.019  -0.006  -0.009  -0.002   0.014   0.000
 -0.014   0.139   0.235  -0.007  -1.017   0.019  -0.104  -0.163   0.001   0.908   0.134  -0.074  -0.048   0.011  -0.016  -0.000
  0.018  -0.064   0.083  -0.020  -0.144  -0.016   0.059  -0.091   0.019   0.134   2.092  -0.312  -0.042   0.003   0.001   0.002
 -0.005   0.011  -0.035   0.004   0.069   0.005  -0.013   0.046  -0.006  -0.074  -0.312   0.126   0.060  -0.004   0.002  -0.002
 -0.012   0.000  -0.112   0.011   0.045   0.012  -0.008   0.084  -0.009  -0.048  -0.042   0.060   0.132   0.007  -0.001  -0.003
  0.007   0.173  -0.021   0.004  -0.010  -0.006  -0.138   0.025  -0.002   0.011   0.003  -0.004   0.007   0.127   0.002  -0.000
  0.357   0.008  -0.004  -0.023   0.020  -0.290  -0.007   0.002   0.014  -0.016   0.001   0.002  -0.001   0.002   0.158   0.000
 -0.000   0.000   0.006  -0.000   0.008  -0.000   0.000  -0.002   0.000  -0.000   0.002  -0.002  -0.003  -0.000   0.000   0.000
 -0.000  -0.011   0.002  -0.001   0.000   0.000   0.005  -0.001   0.000  -0.000  -0.000   0.000  -0.000  -0.003  -0.000   0.000
 -0.013  -0.000   0.000   0.001  -0.001   0.009   0.000  -0.000  -0.001   0.000  -0.000  -0.000   0.000  -0.000  -0.004  -0.000


------------------------ aborting loop because EDIFF is reached ----------------------------------------


    CHARGE:  cpu time    1.73: real time    1.73
    FORLOC:  cpu time    0.00: real time    0.00
    FORNL :  cpu time    3.80: real time    3.81
    STRESS:  cpu time    6.62: real time    6.65
    FORCOR:  cpu time    0.02: real time    0.02
    FORHAR:  cpu time    0.01: real time    0.01
    MIXING:  cpu time    0.00: real time    0.00

  FORCE on cell =-STRESS in cart. coord.  units (eV):
  Direction    XX          YY          ZZ          XY          YZ          ZX
  --------------------------------------------------------------------------------------
  Alpha Z   469.25679   469.25679   469.25679
  Ewald   -2469.34416 -3177.42362 -2708.21462   -21.83063   -24.34826    11.86581
  Hartree   849.95535   342.86845   679.53929   -14.65597    -3.03375     7.54400
  E(xc)    -540.91288  -541.59587  -541.06887    -0.02516    -0.13624     0.01462
  Local    -598.44534   614.42826  -189.43368    36.03564    26.19189   -18.96718
  n-local  -102.82357   -99.56115  -101.52988     0.29066     0.74149    -0.26205
  augment   723.82792   723.28453   723.37067     0.02321     0.11280    -0.04265
  Kinetic  1668.50560  1668.78498  1668.11330     0.15899     0.47240    -0.15449
  Fock        0.00000     0.00000     0.00000     0.00000     0.00000     0.00000
  -------------------------------------------------------------------------------------
  Total       0.01972     0.04237     0.03301    -0.00327     0.00032    -0.00195
  in kB       0.12271     0.26370     0.20541    -0.02033     0.00199    -0.01213
  external pressure =        0.20 kB  Pullay stress =        0.00 kB


 VOLUME and BASIS-vectors are now :
 -----------------------------------------------------------------------------
  energy-cutoff  :      623.79
  volume of cell :      257.44
      direct lattice vectors                 reciprocal lattice vectors
     4.098284712 -0.101403421  0.142199292     0.243695110  0.100281996  0.080429334
    -3.908790081  8.756143563  0.925899455     0.002763091  0.115174859  0.002497838
    -2.320329876 -0.099496280  7.154488324    -0.005201157 -0.016898534  0.137850565

  length of vectors
     4.102004495  9.633586030  7.522003285     0.275522527  0.115235072  0.138979822


 FORCES acting on ions
    electron-ion (+dipol)            ewald-force                    non-local-force                 convergence-correction
 -----------------------------------------------------------------------------------------------
   -.372E+01 -.160E+03 0.250E+02   0.389E+01 0.163E+03 -.253E+02   -.162E+00 -.282E+01 0.265E+00   0.391E-04 0.285E-03 -.567E-03
   0.373E+01 0.160E+03 -.250E+02   -.389E+01 -.163E+03 0.253E+02   0.162E+00 0.282E+01 -.264E+00   -.299E-04 -.291E-03 0.567E-03
   0.317E+01 0.146E+03 0.665E+01   -.326E+01 -.148E+03 -.646E+01   0.948E-01 0.127E+01 -.189E+00   -.355E-04 -.106E-02 -.325E-03
   -.100E+00 -.701E+02 -.429E+02   0.103E+00 0.698E+02 0.438E+02   -.245E-02 0.317E+00 -.854E+00   -.217E-05 0.284E-03 -.432E-03
   0.630E+01 0.978E+02 -.964E+02   -.636E+01 -.990E+02 0.978E+02   0.605E-01 0.127E+01 -.141E+01   -.450E-04 -.727E-04 0.433E-04
   -.178E-01 0.665E-03 0.230E-02   0.177E-01 -.505E-03 -.254E-02   0.400E-03 -.219E-03 0.372E-03   0.239E-05 -.517E-05 0.649E-05
   -.629E+01 -.978E+02 0.964E+02   0.635E+01 0.991E+02 -.978E+02   -.605E-01 -.127E+01 0.141E+01   0.399E-04 0.804E-04 -.515E-04
   -.316E+01 -.146E+03 -.666E+01   0.325E+01 0.148E+03 0.648E+01   -.953E-01 -.127E+01 0.188E+00   0.201E-04 0.107E-02 0.337E-03
   0.937E-01 0.701E+02 0.429E+02   -.964E-01 -.698E+02 -.438E+02   0.252E-02 -.317E+00 0.854E+00   -.410E-05 -.272E-03 0.431E-03
   0.669E-02 0.394E-02 -.159E-02   -.651E-02 -.375E-02 0.170E-02   -.197E-03 -.152E-03 -.697E-04   0.196E-06 0.213E-06 0.361E-06
   0.918E+00 0.940E+01 -.280E+02   -.924E+00 -.922E+01 0.279E+02   0.603E-02 -.181E+00 0.985E-01   0.138E-04 0.819E-04 -.723E-04
   -.930E+00 -.939E+01 0.280E+02   0.936E+00 0.921E+01 -.279E+02   -.583E-02 0.180E+00 -.987E-01   -.134E-04 -.820E-04 0.706E-04
   0.731E+00 -.929E+01 -.204E+02   -.688E+00 0.933E+01 0.201E+02   -.425E-01 -.442E-01 0.274E+00   -.226E-06 0.427E-04 0.835E-05
   -.172E+01 -.622E+02 0.461E+01   0.171E+01 0.621E+02 -.486E+01   0.600E-02 0.657E-01 0.244E+00   0.347E-05 0.127E-03 0.382E-06
   -.733E+00 0.932E+01 0.204E+02   0.690E+00 -.936E+01 -.201E+02   0.426E-01 0.438E-01 -.275E+00   0.290E-06 -.426E-04 -.797E-05
   0.172E+01 0.622E+02 -.462E+01   -.171E+01 -.621E+02 0.487E+01   -.615E-02 -.656E-01 -.243E+00   -.180E-05 -.128E-03 -.279E-05
 -----------------------------------------------------------------------------------------------
   0.288E-04 -.290E-03 -.220E-03   -.140E-13 -.192E-12 -.231E-13   -.163E-04 0.134E-02 0.836E-04   -.128E-04 0.975E-05 0.619E-05
 
 
 POSITION                                       TOTAL-FORCE (eV/Angst)
 -----------------------------------------------------------------------------------
     -3.06949      6.36379      7.88939         0.001277      0.000404     -0.002169
     -2.90873      8.16142      4.54696        -0.001276     -0.000301      0.002215
     -1.04324      1.16746      4.63301         0.000529     -0.002881     -0.001215
     -2.90112      5.24258      2.40011         0.000090     -0.001862     -0.001654
      1.19267      1.83231      0.31915        -0.000683      0.003521     -0.002128
     -3.08394      2.93522      5.68413         0.000298     -0.000130      0.000151
     -0.94186      4.03626      4.03683         0.000561     -0.003351      0.001987
     -1.02624      4.60153      6.87751        -0.000650      0.003011      0.001171
      3.15191      0.62635      1.95597        -0.000112      0.001743      0.001731
     -5.03813      7.31329      6.14706        -0.000021     -0.000024      0.000041
     -0.84852      3.63499      1.26156         0.000207      0.000533     -0.001836
      1.09915      2.23404      3.09443        -0.000202     -0.000406      0.001892
     -0.84955      6.70728      3.45893         0.000526     -0.001246      0.000293
     -2.99564      5.53666      5.14056         0.001376     -0.000992     -0.001748
     -2.80843      7.91784      1.82299        -0.000486      0.000993     -0.000393
      0.92619      0.23233      6.36991        -0.001432      0.000988      0.001660
 -----------------------------------------------------------------------------------
    total drift:                               -0.000000      0.001057     -0.000130


--------------------------------------------------------------------------------------------------------



  FREE ENERGIE OF THE ION-ELECTRON SYSTEM (eV)
  ---------------------------------------------------
  free  energy   TOTEN  =       -49.87795762 eV

  energy  without entropy=      -49.88281323  energy(sigma->0) =      -49.87957616
 
 d Force = 0.3081612E-04[ 0.172E-04, 0.444E-04]  d Energy = 0.4175646E-04-0.109E-04
 d Force =-0.3303477E+00[-0.331E+00,-0.329E+00]  d Ewald  = 0.4174010E+00-0.748E+00


--------------------------------------------------------------------------------------------------------


    POTLOK:  cpu time    0.03: real time    0.03


--------------------------------------------------------------------------------------------------------


 Conjugate gradient step on ions:
 trial-energy change:   -0.000042  1 .order   -0.000040   -0.000068   -0.000012
  (g-gl).g = 0.262E-04      g.g   = 0.239E-04  gl.gl    = 0.362E-04
 g(Force)  = 0.143E-04   g(Stress)= 0.963E-05 ortho     =-0.209E-06
 gamma     =   0.72499
 trial     =   2.85802
 opt step  =   3.35996  (harmonic =   3.47517) maximal distance =0.00219605
 next E    =   -49.877959   (d E  =  -0.00004)


--------------------------------------------------------------------------------------------------------


  
 reached required accuracy - stopping structural energy minimisation
 writing wavefunctions
     LOOP+:  cpu time  129.47: real time  130.61
    4ORBIT:  cpu time    0.00: real time    0.00

 total amount of memory used by VASP on root node   185536. kBytes
========================================================================

   base      :      30000. kBytes
   nonl-proj :     113045. kBytes
   fftplans  :       1823. kBytes
   grid      :       8971. kBytes
   one-center:        248. kBytes
   wavefun   :      31449. kBytes
 
  
  
 General timing and accounting informations for this job:
 ========================================================
  
                  Total CPU time used (sec):     2759.090
                            User time (sec):     2755.242
                          System time (sec):        3.847
                         Elapsed time (sec):     2775.962
  
                   Maximum memory used (kb):      280508.
                   Average memory used (kb):           0.
  
                          Minor page faults:        19091
                          Major page faults:            0
                 Voluntary context switches:        17813
