 vasp.5.3.3 18Dez12 (build Jul 21 2015 03:44:18) complex                        
  
 executed on             LinuxIFC date 2015.08.08  12:09:07
 running on    4 total cores
 distrk:  each k-point on    4 cores,    1 groups
 distr:  one band on NCORES_PER_BAND=   2 cores,    2 groups


--------------------------------------------------------------------------------------------------------


 INCAR:
 POTCAR:    PAW_PBE Ca_sv 06Sep2000               
 POTCAR:    PAW_PBE Mn 06Sep2000                  
 POTCAR:    PAW_PBE O 08Apr2002                   
 POTCAR:    PAW_PBE Ca_sv 06Sep2000               
   VRHFIN =Ca: 3s3p4s                                                           
   LEXCH  = PE                                                                  
   EATOM  =  1006.0909 eV,   73.9456 Ry                                         
                                                                                
   TITEL  = PAW_PBE Ca_sv 06Sep2000                                             
   LULTRA =        F    use ultrasoft PP ?                                      
   IUNSCR =        1    unscreen: 0-lin 1-nonlin 2-no                           
   RPACOR =    2.000    partial core radius                                     
   POMASS =   40.078; ZVAL   =   10.000    mass and valenz                      
   RCORE  =    2.300    outmost cutoff radius                                   
   RWIGS  =    2.500; RWIGS  =    1.323    wigner-seitz radius (au A)           
   ENMAX  =  266.622; ENMIN  =  199.967 eV                                      
   RCLOC  =    1.808    cutoff for local pot                                    
   LCOR   =        T    correct aug charges                                     
   LPAW   =        T    paw PP                                                  
   EAUG   =  420.852                                                            
   RMAX   =    2.359    core radius for proj-oper                               
   RAUG   =    1.300    factor for augmentation sphere                          
   RDEP   =    2.392    radius for radial grids                                 
   RDEPT  =    1.987    core radius for aug-charge                              
                                                                                
   Atomic configuration                                                         
    7 entries                                                                   
     n  l   j            E        occ.                                          
     1  0  0.50     -3949.1705   2.0000                                         
     2  0  0.50      -414.3434   2.0000                                         
     2  1  1.50      -334.7047   6.0000                                         
     3  0  0.50       -47.0896   2.0000                                         
     4  0  0.50        -3.7663   2.0000                                         
     3  1  1.50       -28.0061   6.0000                                         
     3  2  1.50        -4.0817   0.0000                                         
   Description                                                                  
     l       E           TYP  RCUT    TYP  RCUT                                 
     0    -47.0896403     23  2.300                                             
     0     -3.7663320     23  2.300                                             
     1    -28.0060855     23  2.300                                             
     1      6.8029130     23  2.300                                             
     2     -4.0817478     23  2.300                                             
     2      0.4464412     23  2.300                                             
  local pseudopotential read in
  partial core-charges read in
  partial kinetic energy density read in
  atomic valenz-charges read in
  non local Contribution for L=           0  read in
    real space projection operators read in
  non local Contribution for L=           0  read in
    real space projection operators read in
  non local Contribution for L=           1  read in
    real space projection operators read in
  non local Contribution for L=           1  read in
    real space projection operators read in
  non local Contribution for L=           2  read in
    real space projection operators read in
  non local Contribution for L=           2  read in
    real space projection operators read in
    PAW grid and wavefunctions read in
 
   number of l-projection  operators is LMAX  =           6
   number of lm-projection operators is LMMAX =          18
 
 POTCAR:    PAW_PBE Mn 06Sep2000                  
   VRHFIN =Mn: d6 s1                                                            
   LEXCH  = PE                                                                  
   EATOM  =   416.7541 eV,   30.6306 Ry                                         
                                                                                
   TITEL  = PAW_PBE Mn 06Sep2000                                                
   LULTRA =        F    use ultrasoft PP ?                                      
   IUNSCR =        1    unscreen: 0-lin 1-nonlin 2-no                           
   RPACOR =    2.000    partial core radius                                     
   POMASS =   54.938; ZVAL   =    7.000    mass and valenz                      
   RCORE  =    2.300    outmost cutoff radius                                   
   RWIGS  =    2.500; RWIGS  =    1.323    wigner-seitz radius (au A)           
   ENMAX  =  269.864; ENMIN  =  202.398 eV                                      
   RCLOC  =    1.725    cutoff for local pot                                    
   LCOR   =        T    correct aug charges                                     
   LPAW   =        T    paw PP                                                  
   EAUG   =  500.711                                                            
   DEXC   =    0.000                                                            
   RMAX   =    2.343    core radius for proj-oper                               
   RAUG   =    1.300    factor for augmentation sphere                          
   RDEP   =    2.338    radius for radial grids                                 
   RDEPT  =    1.911    core radius for aug-charge                              
                                                                                
   Atomic configuration                                                         
    9 entries                                                                   
     n  l   j            E        occ.                                          
     1  0  0.50     -6424.8288   2.0000                                         
     2  0  0.50      -739.1154   2.0000                                         
     2  1  1.50      -625.3949   6.0000                                         
     3  0  0.50       -81.6100   2.0000                                         
     3  1  1.50       -50.4667   6.0000                                         
     3  2  2.50        -3.3745   6.0000                                         
     4  0  0.50        -4.1331   1.0000                                         
     4  1  0.50        -4.0817   0.0000                                         
     4  3  2.50        -1.3606   0.0000                                         
   Description                                                                  
     l       E           TYP  RCUT    TYP  RCUT                                 
     2     -3.3744664     23  2.300                                             
     2     -4.7350490     23  2.300                                             
     0     -4.1331408     23  2.300                                             
     0      7.6656614     23  2.300                                             
     1     -2.7211652     23  2.300                                             
     1     20.4087390     23  2.300                                             
  local pseudopotential read in
  partial core-charges read in
  partial kinetic energy density read in
  atomic valenz-charges read in
  non local Contribution for L=           2  read in
    real space projection operators read in
  non local Contribution for L=           2  read in
    real space projection operators read in
  non local Contribution for L=           0  read in
    real space projection operators read in
  non local Contribution for L=           0  read in
    real space projection operators read in
  non local Contribution for L=           1  read in
    real space projection operators read in
  non local Contribution for L=           1  read in
    real space projection operators read in
    PAW grid and wavefunctions read in
 
   number of l-projection  operators is LMAX  =           6
   number of lm-projection operators is LMMAX =          18
 
 POTCAR:    PAW_PBE O 08Apr2002                   
   VRHFIN =O: s2p4                                                              
   LEXCH  = PE                                                                  
   EATOM  =   432.3788 eV,   31.7789 Ry                                         
                                                                                
   TITEL  = PAW_PBE O 08Apr2002                                                 
   LULTRA =        F    use ultrasoft PP ?                                      
   IUNSCR =        1    unscreen: 0-lin 1-nonlin 2-no                           
   RPACOR =    1.200    partial core radius                                     
   POMASS =   16.000; ZVAL   =    6.000    mass and valenz                      
   RCORE  =    1.520    outmost cutoff radius                                   
   RWIGS  =    1.550; RWIGS  =    0.820    wigner-seitz radius (au A)           
   ENMAX  =  400.000; ENMIN  =  300.000 eV                                      
   ICORE  =        2    local potential                                         
   LCOR   =        T    correct aug charges                                     
   LPAW   =        T    paw PP                                                  
   EAUG   =  605.392                                                            
   DEXC   =    0.000                                                            
   RMAX   =    1.553    core radius for proj-oper                               
   RAUG   =    1.300    factor for augmentation sphere                          
   RDEP   =    1.550    radius for radial grids                                 
   RDEPT  =    1.329    core radius for aug-charge                              
                                                                                
   Atomic configuration                                                         
    4 entries                                                                   
     n  l   j            E        occ.                                          
     1  0  0.50      -514.6923   2.0000                                         
     2  0  0.50       -23.9615   2.0000                                         
     2  1  0.50        -9.0305   4.0000                                         
     3  2  1.50        -9.5241   0.0000                                         
   Description                                                                  
     l       E           TYP  RCUT    TYP  RCUT                                 
     0    -23.9615318     23  1.200                                             
     0     -9.5240782     23  1.200                                             
     1     -9.0304911     23  1.520                                             
     1      8.1634956     23  1.520                                             
     2     -9.5240782      7  1.500                                             
  local pseudopotential read in
  partial core-charges read in
  partial kinetic energy density read in
  kinetic energy density of atom read in
  atomic valenz-charges read in
  non local Contribution for L=           0  read in
    real space projection operators read in
  non local Contribution for L=           0  read in
    real space projection operators read in
  non local Contribution for L=           1  read in
    real space projection operators read in
  non local Contribution for L=           1  read in
    real space projection operators read in
    PAW grid and wavefunctions read in
 
   number of l-projection  operators is LMAX  =           4
   number of lm-projection operators is LMMAX =           8
 

 ----------------------------------------------------------------------------- 
|                                                                             |
|  ADVICE TO THIS USER RUNNING 'VASP/VAMP'   (HEAR YOUR MASTER'S VOICE ...):  |
|                                                                             |
|      You have a (more or less) 'large supercell' and for larger cells       |
|      it might be more efficient to use real space projection opertators     |
|      So try LREAL= Auto  in the INCAR   file.                               |
|      Mind: At the moment your POTCAR file does not contain real space       |
|       projectors, and has to be modified,  BUT if you                       |
|      want to do an extremely  accurate calculation you might also keep the  |
|      reciprocal projection scheme          (i.e. LREAL=.FALSE.)             |
|                                                                             |
 ----------------------------------------------------------------------------- 

  PAW_PBE Ca_sv 06Sep2000               :
 energy of atom  1       EATOM=-1006.0909
 kinetic energy error for atom=    0.0026 (will be added to EATOM!!)
  PAW_PBE Mn 06Sep2000                  :
 energy of atom  2       EATOM= -416.7541
 kinetic energy error for atom=    0.0024 (will be added to EATOM!!)
  PAW_PBE O 08Apr2002                   :
 energy of atom  3       EATOM= -432.3788
 kinetic energy error for atom=    0.0224 (will be added to EATOM!!)
 
 
 POSCAR:  Ca Mn O                                
  positions in direct lattice
  No initial velocities read in
 exchange correlation table for  LEXCH =        8
   RHO(1)=    0.500       N(1)  =     2000
   RHO(2)=  100.500       N(2)  =     4000
 


--------------------------------------------------------------------------------------------------------


 ion  position               nearest neighbor table
   1  0.041  0.750  0.492-  11 2.31  15 2.33  18 2.33   9 2.39  13 2.52  20 2.52  19 2.57  14 2.57
                             8 3.04   6 3.04   7 3.17   5 3.17
   2  0.459  0.250  0.992-  12 2.31  16 2.33  17 2.33  10 2.39  14 2.52  19 2.52  20 2.57  13 2.57
                             7 3.04   5 3.04   8 3.17   6 3.17
   3  0.541  0.750  0.008-   9 2.31  20 2.33  13 2.33  11 2.39  18 2.52  15 2.52  16 2.57  17 2.57
                             7 3.04   5 3.04   8 3.17   6 3.17
   4  0.959  0.250  0.508-  10 2.31  19 2.33  14 2.33  12 2.39  17 2.52  16 2.52  15 2.57  18 2.57
                             6 3.04   8 3.04   7 3.17   5 3.17
   5  0.000  1.000  0.000-  11 1.88  10 1.88  20 1.89  16 1.89  15 1.89  19 1.89   3 3.04   2 3.04
                             4 3.17   1 3.17
   6  0.500  1.000  0.500-   9 1.88  12 1.88  15 1.89  19 1.89  20 1.89  16 1.89   4 3.04   1 3.04
                             3 3.17   2 3.17
   7  1.000  0.500  0.000-  11 1.88  10 1.88  13 1.89  17 1.89  18 1.89  14 1.89   3 3.04   2 3.04
                             1 3.17   4 3.17
   8  0.500  0.500  0.500-   9 1.88  12 1.88  18 1.89  14 1.89  13 1.89  17 1.89   1 3.04   4 3.04
                             2 3.17   3 3.17
   9  0.489  0.750  0.568-   6 1.88   8 1.88   3 2.31   1 2.39
  10  0.011  0.250  0.068-   5 1.88   7 1.88   4 2.31   2 2.39
  11  0.989  0.750  0.932-   5 1.88   7 1.88   1 2.31   3 2.39
  12  0.511  0.250  0.432-   8 1.88   6 1.88   2 2.31   4 2.39
  13  0.288  0.536  0.211-   7 1.89   8 1.89   3 2.33   1 2.52   2 2.57
  14  0.212  0.464  0.711-   8 1.89   7 1.89   4 2.33   2 2.52   1 2.57
  15  0.788  0.964  0.289-   6 1.89   5 1.89   1 2.33   3 2.52   4 2.57
  16  0.712  0.036  0.789-   5 1.89   6 1.89   2 2.33   4 2.52   3 2.57
  17  0.712  0.464  0.789-   7 1.89   8 1.89   2 2.33   4 2.52   3 2.57
  18  0.788  0.536  0.289-   8 1.89   7 1.89   1 2.33   3 2.52   4 2.57
  19  0.212  0.036  0.711-   6 1.89   5 1.89   4 2.33   2 2.52   1 2.57
  20  0.288  0.964  0.211-   5 1.89   6 1.89   3 2.33   1 2.52   2 2.57
 

IMPORTANT INFORMATION: All symmetrisations will be switched off!
NOSYMM: (Re-)initialisation of all symmetry stuff for point group C_1.

 
 
 KPOINTS: Automatic mesh                          

Automatic generation of k-mesh.
Space group operators:
 irot       det(A)        alpha          n_x          n_y          n_z        tau_x        tau_y        tau_z
    1     1.000000     0.000000     1.000000     0.000000     0.000000     0.000000     0.000000     0.000000
 
 Subroutine IBZKPT returns following result:
 ===========================================
 
 Found     32 irreducible k-points:
 
 Following reciprocal coordinates:
            Coordinates               Weight
  0.125000  0.250000  0.125000      1.000000
  0.375000  0.250000  0.125000      1.000000
 -0.375000  0.250000  0.125000      1.000000
 -0.125000  0.250000  0.125000      1.000000
  0.125000 -0.250000  0.125000      1.000000
  0.375000 -0.250000  0.125000      1.000000
 -0.375000 -0.250000  0.125000      1.000000
 -0.125000 -0.250000  0.125000      1.000000
  0.125000  0.250000  0.375000      1.000000
  0.375000  0.250000  0.375000      1.000000
 -0.375000  0.250000  0.375000      1.000000
 -0.125000  0.250000  0.375000      1.000000
  0.125000 -0.250000  0.375000      1.000000
  0.375000 -0.250000  0.375000      1.000000
 -0.375000 -0.250000  0.375000      1.000000
 -0.125000 -0.250000  0.375000      1.000000
  0.125000  0.250000 -0.375000      1.000000
  0.375000  0.250000 -0.375000      1.000000
 -0.375000  0.250000 -0.375000      1.000000
 -0.125000  0.250000 -0.375000      1.000000
  0.125000 -0.250000 -0.375000      1.000000
  0.375000 -0.250000 -0.375000      1.000000
 -0.375000 -0.250000 -0.375000      1.000000
 -0.125000 -0.250000 -0.375000      1.000000
  0.125000  0.250000 -0.125000      1.000000
  0.375000  0.250000 -0.125000      1.000000
 -0.375000  0.250000 -0.125000      1.000000
 -0.125000  0.250000 -0.125000      1.000000
  0.125000 -0.250000 -0.125000      1.000000
  0.375000 -0.250000 -0.125000      1.000000
 -0.375000 -0.250000 -0.125000      1.000000
 -0.125000 -0.250000 -0.125000      1.000000
 
 Following cartesian coordinates:
            Coordinates               Weight
  0.023747  0.033799  0.023936      1.000000
  0.071240  0.033799  0.023936      1.000000
 -0.071240  0.033799  0.023936      1.000000
 -0.023747  0.033799  0.023936      1.000000
  0.023747 -0.033799  0.023936      1.000000
  0.071240 -0.033799  0.023936      1.000000
 -0.071240 -0.033799  0.023936      1.000000
 -0.023747 -0.033799  0.023936      1.000000
  0.023747  0.033799  0.071809      1.000000
  0.071240  0.033799  0.071809      1.000000
 -0.071240  0.033799  0.071809      1.000000
 -0.023747  0.033799  0.071809      1.000000
  0.023747 -0.033799  0.071809      1.000000
  0.071240 -0.033799  0.071809      1.000000
 -0.071240 -0.033799  0.071809      1.000000
 -0.023747 -0.033799  0.071809      1.000000
  0.023747  0.033799 -0.071809      1.000000
  0.071240  0.033799 -0.071809      1.000000
 -0.071240  0.033799 -0.071809      1.000000
 -0.023747  0.033799 -0.071809      1.000000
  0.023747 -0.033799 -0.071809      1.000000
  0.071240 -0.033799 -0.071809      1.000000
 -0.071240 -0.033799 -0.071809      1.000000
 -0.023747 -0.033799 -0.071809      1.000000
  0.023747  0.033799 -0.023936      1.000000
  0.071240  0.033799 -0.023936      1.000000
 -0.071240  0.033799 -0.023936      1.000000
 -0.023747  0.033799 -0.023936      1.000000
  0.023747 -0.033799 -0.023936      1.000000
  0.071240 -0.033799 -0.023936      1.000000
 -0.071240 -0.033799 -0.023936      1.000000
 -0.023747 -0.033799 -0.023936      1.000000
 
 TETIRR: Found    192 inequivalent tetrahedra from      192


--------------------------------------------------------------------------------------------------------




 Dimension of arrays:
   k-points           NKPTS =     32   k-points in BZ     NKDIM =     32   number of bands    NBANDS=    170
   number of dos      NEDOS =    301   number of ions     NIONS =     20
   non local maximal  LDIM  =      6   non local SUM 2l+1 LMDIM =     18
   total plane-waves  NPLWV =  86400
   max r-space proj   IRMAX =      1   max aug-charges    IRDMAX= 162375
   dimension x,y,z NGX =    40 NGY =   54 NGZ =   40
   dimension x,y,z NGXF=    80 NGYF=  108 NGZF=   80
   support grid    NGXF=   160 NGYF=  216 NGZF=  160
   ions per type =               4   4  12
 NGX,Y,Z   is equivalent  to a cutoff of  12.63, 12.14, 12.73 a.u.
 NGXF,Y,Z  is equivalent  to a cutoff of  25.27, 24.27, 25.47 a.u.


 I would recommend the setting:
   dimension x,y,z NGX =    38 NGY =   54 NGZ =   38
 SYSTEM =  unknown system                          
 POSCAR =   Ca Mn O                                

 Startparameter for this run:
   NWRITE =      2    write-flag & timer
   PREC   = accura    normal or accurate (medium, high low for compatibility)
   ISTART =      0    job   : 0-new  1-cont  2-samecut
   ICHARG =      2    charge: 1-file 2-atom 10-const
   ISPIN  =      1    spin polarized calculation?
   LNONCOLLINEAR =      T non collinear calculations
   LSORBIT =      T    spin-orbit coupling
   INIWAV =      1    electr: 0-lowe 1-rand  2-diag
   LASPH  =      F    aspherical Exc in radial PAW
   METAGGA=      F    non-selfconsistent MetaGGA calc.

 Electronic Relaxation 1
   ENCUT  =  500.0 eV  36.75 Ry    6.06 a.u.   9.60 13.49  9.52*2*pi/ulx,y,z
   ENINI  =  500.0     initial cutoff
   ENAUG  =  605.4 eV  augmentation charge cutoff
   NELM   =    100;   NELMIN=  6; NELMDL= -5     # of ELM steps 
   EDIFF  = 0.1E-08   stopping-criterion for ELM
   LREAL  =      F    real-space projection
   NLSPLINE    = F    spline interpolate recip. space projectors
   LCOMPAT=      F    compatible to vasp.4.4
   GGA_COMPAT  = T    GGA compatible to vasp.4.4-vasp.4.6
   LMAXPAW     = -100 max onsite density
   LMAXMIX     =    4 max onsite mixed and CHGCAR
   VOSKOWN=      0    Vosko Wilk Nusair interpolation
   ROPT   =    0.00000   0.00000   0.00000
 Ionic relaxation
   EDIFFG = -.5E-05   stopping-criterion for IOM
   NSW    =      0    number of steps for IOM
   NBLOCK =      1;   KBLOCK =      1    inner block; outer block 
   IBRION =     -1    ionic relax: 0-MD 1-quasi-New 2-CG
   NFREE  =      0    steps in history (QN), initial steepest desc. (CG)
   ISIF   =      2    stress and relaxation
   IWAVPR =     10    prediction:  0-non 1-charg 2-wave 3-comb
   ISYM   =      0    0-nonsym 1-usesym 2-fastsym
   LCORR  =      T    Harris-Foulkes like correction to forces

   POTIM  = 0.5000    time-step for ionic-motion
   TEIN   =    0.0    initial temperature
   TEBEG  =    0.0;   TEEND  =   0.0 temperature during run
   SMASS  =  -3.00    Nose mass-parameter (am)
   estimated Nose-frequenzy (Omega)   =  0.10E-29 period in steps =****** mass=  -0.633E-27a.u.
   SCALEE = 1.0000    scale energy and forces
   NPACO  =    256;   APACO  = 16.0  distance and # of slots for P.C.
   PSTRESS=    0.0 pullay stress

  Mass of Ions in am
   POMASS =  40.08 54.94 16.00
  Ionic Valenz
   ZVAL   =  10.00  7.00  6.00
  Atomic Wigner-Seitz radii
   RWIGS  =   2.00  1.87  1.78
  virtual crystal weights 
   VCA    =   1.00  1.00  1.00
   NELECT =     140.0000    total number of electrons
   NUPDOWN=      -1.0000    fix difference up-down

 DOS related values:
   EMIN   =  10.00;   EMAX   =-10.00  energy-range for DOS
   EFERMI =   0.00
   ISMEAR =    -5;   SIGMA  =   0.20  broadening in eV -4-tet -1-fermi 0-gaus

 Electronic relaxation 2 (details)
   IALGO  =     38    algorithm
   LDIAG  =      T    sub-space diagonalisation (order eigenvalues)
   LSUBROT=      T    optimize rotation matrix (better conditioning)
   TURBO    =      0    0=normal 1=particle mesh
   IRESTART =      0    0=no restart 2=restart with 2 vectors
   NREBOOT  =      0    no. of reboots
   NMIN     =      0    reboot dimension
   EREF     =   0.00    reference energy to select bands
   IMIX   =      4    mixing-type and parameters
     AMIX     =   0.80;   BMIX     =  0.90
     AMIX_MAG =   0.40;   BMIX_MAG =  0.90
     AMIN     =   0.10
     WC   =   100.;   INIMIX=   1;  MIXPRE=   1;  MAXMIX= -45

 Intra band minimization:
   WEIMIN = 0.0000     energy-eigenvalue tresh-hold
   EBREAK =  0.15E-11  absolut break condition
   DEPER  =   0.30     relativ break condition  

   TIME   =   0.40     timestep for ELM

  volume/ion in A,a.u.               =      10.17        68.61
  Fermi-wavevector in a.u.,A,eV,Ry     =   1.445617  2.731820 28.433574  2.089809
  Thomas-Fermi vector in A             =   2.563779
 
 Write flags
   LWAVE  =      F    write WAVECAR
   LCHARG =      T    write CHGCAR
   LVTOT  =      F    write LOCPOT, total local potential
   LVHAR  =      F    write LOCPOT, Hartree potential only
   LELF   =      F    write electronic localiz. function (ELF)
   LORBIT =     11    0 simple, 1 ext, 2 COOP (PROOUT)


 Dipole corrections
   LMONO  =      F    monopole corrections only (constant potential shift)
   LDIPOL =      F    correct potential (dipole corrections)
   IDIPOL =      0    1-x, 2-y, 3-z, 4-all directions 
   EPSILON=  1.0000000 bulk dielectric constant

 Exchange correlation treatment:
   GGA     =    --    GGA type
   LEXCH   =     8    internal setting for exchange type
   VOSKOWN=      0    Vosko Wilk Nusair interpolation
   LHFCALC =     F    Hartree Fock is set to
   LHFONE  =     F    Hartree Fock one center treatment
   AEXX    =    0.0000 exact exchange contribution

 Linear response parameters
   LEPSILON=     F    determine dielectric tensor
   LRPA    =     F    only Hartree local field effects (RPA)
   LNABLA  =     F    use nabla operator in PAW spheres
   LVEL    =     F    velocity operator in full k-point grid
   LINTERFAST=   F  fast interpolation
   KINTER  =     0    interpolate to denser k-point grid
   CSHIFT  =0.1000    complex shift for real part using Kramers Kronig
   OMEGAMAX=  -1.0    maximum frequency
   DEG_THRESHOLD= 0.2000000E-02 threshold for treating states as degnerate
   RTIME   =    0.100 relaxation time in fs

 Orbital magnetization related:
   ORBITALMAG=     F  switch on orbital magnetization
   LCHIMAG   =     F  perturbation theory with respect to B field
   DQ        =  0.001000  dq finite difference perturbation B field



--------------------------------------------------------------------------------------------------------


 Static calculation
 charge density and potential will be updated during run
 non collinear spin polarized calculation
 Variant of blocked Davidson
 Davidson routine will perform the subspace rotation
 perform sub-space diagonalisation
    after iterative eigenvector-optimisation
 modified Broyden-mixing scheme, WC =      100.0
 initial mixing is a Kerker type mixing with AMIX =  0.8000 and BMIX =      0.9000
 Hartree-type preconditioning will be used
 using additional bands          100
 reciprocal scheme for non local part
 use partial core corrections
 calculate Harris-corrections to forces 
   (improved forces if not selfconsistent)
 use gradient corrections 
 use of overlap-Matrix (Vanderbilt PP)
 Fermi weights with tetrahedron method with Bloechl corrections


--------------------------------------------------------------------------------------------------------


  energy-cutoff  :      500.00
  volume of cell :      203.33
      direct lattice vectors                 reciprocal lattice vectors
     5.263866810  0.000000000  0.000000000     0.189974412  0.000000000  0.000000000
     0.000000000  7.396661915  0.000000000     0.000000000  0.135196121  0.000000000
     0.000000000  0.000000000  5.222182585     0.000000000  0.000000000  0.191490815

  length of vectors
     5.263866810  7.396661915  5.222182585     0.189974412  0.135196121  0.191490815


 
 k-points in units of 2pi/SCALE and weight: Automatic mesh                          
   0.02374680  0.03379903  0.02393635       0.031
   0.07124040  0.03379903  0.02393635       0.031
  -0.07124040  0.03379903  0.02393635       0.031
  -0.02374680  0.03379903  0.02393635       0.031
   0.02374680 -0.03379903  0.02393635       0.031
   0.07124040 -0.03379903  0.02393635       0.031
  -0.07124040 -0.03379903  0.02393635       0.031
  -0.02374680 -0.03379903  0.02393635       0.031
   0.02374680  0.03379903  0.07180906       0.031
   0.07124040  0.03379903  0.07180906       0.031
  -0.07124040  0.03379903  0.07180906       0.031
  -0.02374680  0.03379903  0.07180906       0.031
   0.02374680 -0.03379903  0.07180906       0.031
   0.07124040 -0.03379903  0.07180906       0.031
  -0.07124040 -0.03379903  0.07180906       0.031
  -0.02374680 -0.03379903  0.07180906       0.031
   0.02374680  0.03379903 -0.07180906       0.031
   0.07124040  0.03379903 -0.07180906       0.031
  -0.07124040  0.03379903 -0.07180906       0.031
  -0.02374680  0.03379903 -0.07180906       0.031
   0.02374680 -0.03379903 -0.07180906       0.031
   0.07124040 -0.03379903 -0.07180906       0.031
  -0.07124040 -0.03379903 -0.07180906       0.031
  -0.02374680 -0.03379903 -0.07180906       0.031
   0.02374680  0.03379903 -0.02393635       0.031
   0.07124040  0.03379903 -0.02393635       0.031
  -0.07124040  0.03379903 -0.02393635       0.031
  -0.02374680  0.03379903 -0.02393635       0.031
   0.02374680 -0.03379903 -0.02393635       0.031
   0.07124040 -0.03379903 -0.02393635       0.031
  -0.07124040 -0.03379903 -0.02393635       0.031
  -0.02374680 -0.03379903 -0.02393635       0.031
 
 k-points in reciprocal lattice and weights: Automatic mesh                          
   0.12500000  0.25000000  0.12500000       0.031
   0.37500000  0.25000000  0.12500000       0.031
  -0.37500000  0.25000000  0.12500000       0.031
  -0.12500000  0.25000000  0.12500000       0.031
   0.12500000 -0.25000000  0.12500000       0.031
   0.37500000 -0.25000000  0.12500000       0.031
  -0.37500000 -0.25000000  0.12500000       0.031
  -0.12500000 -0.25000000  0.12500000       0.031
   0.12500000  0.25000000  0.37500000       0.031
   0.37500000  0.25000000  0.37500000       0.031
  -0.37500000  0.25000000  0.37500000       0.031
  -0.12500000  0.25000000  0.37500000       0.031
   0.12500000 -0.25000000  0.37500000       0.031
   0.37500000 -0.25000000  0.37500000       0.031
  -0.37500000 -0.25000000  0.37500000       0.031
  -0.12500000 -0.25000000  0.37500000       0.031
   0.12500000  0.25000000 -0.37500000       0.031
   0.37500000  0.25000000 -0.37500000       0.031
  -0.37500000  0.25000000 -0.37500000       0.031
  -0.12500000  0.25000000 -0.37500000       0.031
   0.12500000 -0.25000000 -0.37500000       0.031
   0.37500000 -0.25000000 -0.37500000       0.031
  -0.37500000 -0.25000000 -0.37500000       0.031
  -0.12500000 -0.25000000 -0.37500000       0.031
   0.12500000  0.25000000 -0.12500000       0.031
   0.37500000  0.25000000 -0.12500000       0.031
  -0.37500000  0.25000000 -0.12500000       0.031
  -0.12500000  0.25000000 -0.12500000       0.031
   0.12500000 -0.25000000 -0.12500000       0.031
   0.37500000 -0.25000000 -0.12500000       0.031
  -0.37500000 -0.25000000 -0.12500000       0.031
  -0.12500000 -0.25000000 -0.12500000       0.031
 
 position of ions in fractional coordinates (direct lattice) 
   0.04095122  0.74999996  0.49198441
   0.45904875  0.25000003  0.99198427
   0.54095123  0.74999999  0.00801559
   0.95904874  0.25000000  0.50801572
   0.00000002  0.99999998  0.00000006
   0.50000000  0.99999997  0.49999996
   0.99999999  0.50000002  0.00000005
   0.49999999  0.50000002  0.49999995
   0.48906392  0.75000000  0.56781191
   0.01093621  0.24999999  0.06781204
   0.98906398  0.75000001  0.93218808
   0.51093622  0.25000000  0.43218795
   0.28779948  0.53569184  0.21125850
   0.21220043  0.46430825  0.71125841
   0.78779965  0.96430815  0.28874165
   0.71220032  0.03569174  0.78874173
   0.71220043  0.46430830  0.78874156
   0.78779946  0.53569182  0.28874149
   0.21220032  0.03569173  0.71125830
   0.28779964  0.96430819  0.21125836
 
 position of ions in cartesian coordinates  (Angst):
   0.21556177  5.54749613  2.56923240
   2.41637148  1.84916572  5.18032297
   2.84749520  5.54749639  0.04185889
   5.04830485  1.84916547  2.65295087
   0.00000010  7.39666179  0.00000031
   2.63193342  7.39666170  2.61109106
   5.26386675  3.69833110  0.00000024
   2.63193337  3.69833112  2.61109103
   2.57436734  5.54749641  2.96521749
   0.05756677  1.84916543  0.35412684
   5.20630106  5.54749653  4.86805638
   2.68950019  1.84916548  2.25696440
   1.51493812  3.96233145  1.10323047
   1.11699480  3.43433113  3.71432129
   4.14687243  7.13266135  1.50786164
   3.74892764  0.26399973  4.11895332
   3.74892818  3.43433151  4.11895246
   4.14687143  3.96233128  1.50786078
   1.11699423  0.26399966  3.71432073
   1.51493897  7.13266169  1.10322971
 
 Euler angles ALPHA=     0.0000000  BETA=     0.0000000

 transformation matrix from SAXIS to cartesian coordinates
 ---------------------------------------------------------
     1.0000000 m_x     0.0000000 m_y     0.0000000 m_z
     0.0000000 m_x     1.0000000 m_y     0.0000000 m_z
     0.0000000 m_x     0.0000000 m_y     1.0000000 m_z

 transformation matrix from cartesian coordinates to SAXIS
 ---------------------------------------------------------
     1.0000000 m_x     0.0000000 m_y     0.0000000 m_z
     0.0000000 m_x     1.0000000 m_y     0.0000000 m_z
     0.0000000 m_x     0.0000000 m_y     1.0000000 m_z




--------------------------------------------------------------------------------------------------------


 k-point  1 :   0.1250 0.2500 0.1250  plane waves:   10362
 k-point  2 :   0.3750 0.2500 0.1250  plane waves:   10308
 k-point  3 :  -0.3750 0.2500 0.1250  plane waves:   10308
 k-point  4 :  -0.1250 0.2500 0.1250  plane waves:   10362
 k-point  5 :   0.1250-0.2500 0.1250  plane waves:   10362
 k-point  6 :   0.3750-0.2500 0.1250  plane waves:   10308
 k-point  7 :  -0.3750-0.2500 0.1250  plane waves:   10308
 k-point  8 :  -0.1250-0.2500 0.1250  plane waves:   10362
 k-point  9 :   0.1250 0.2500 0.3750  plane waves:   10300
 k-point 10 :   0.3750 0.2500 0.3750  plane waves:   10324
 k-point 11 :  -0.3750 0.2500 0.3750  plane waves:   10324
 k-point 12 :  -0.1250 0.2500 0.3750  plane waves:   10300
 k-point 13 :   0.1250-0.2500 0.3750  plane waves:   10300
 k-point 14 :   0.3750-0.2500 0.3750  plane waves:   10324
 k-point 15 :  -0.3750-0.2500 0.3750  plane waves:   10324
 k-point 16 :  -0.1250-0.2500 0.3750  plane waves:   10300
 k-point 17 :   0.1250 0.2500-0.3750  plane waves:   10300
 k-point 18 :   0.3750 0.2500-0.3750  plane waves:   10324
 k-point 19 :  -0.3750 0.2500-0.3750  plane waves:   10324
 k-point 20 :  -0.1250 0.2500-0.3750  plane waves:   10300
 k-point 21 :   0.1250-0.2500-0.3750  plane waves:   10300
 k-point 22 :   0.3750-0.2500-0.3750  plane waves:   10324
 k-point 23 :  -0.3750-0.2500-0.3750  plane waves:   10324
 k-point 24 :  -0.1250-0.2500-0.3750  plane waves:   10300
 k-point 25 :   0.1250 0.2500-0.1250  plane waves:   10362
 k-point 26 :   0.3750 0.2500-0.1250  plane waves:   10308
 k-point 27 :  -0.3750 0.2500-0.1250  plane waves:   10308
 k-point 28 :  -0.1250 0.2500-0.1250  plane waves:   10362
 k-point 29 :   0.1250-0.2500-0.1250  plane waves:   10362
 k-point 30 :   0.3750-0.2500-0.1250  plane waves:   10308
 k-point 31 :  -0.3750-0.2500-0.1250  plane waves:   10308
 k-point 32 :  -0.1250-0.2500-0.1250  plane waves:   10362

 maximum and minimum number of plane-waves per node :      5210     5116

 maximum number of plane-waves:     10362
 maximum index in each direction: 
   IXMAX=    9   IYMAX=   13   IZMAX=    9
   IXMIN=   -9   IYMIN=  -13   IZMIN=   -9

 NGX is ok and might be reduce to  38
 NGY is ok and might be reduce to  54
 NGZ is ok and might be reduce to  38

 parallel 3D FFT for wavefunctions:
    minimum data exchange during FFTs selected (reduces bandwidth)
 parallel 3D FFT for charge:
    minimum data exchange during FFTs selected (reduces bandwidth)


 total amount of memory used by VASP on root node   406240. kBytes
========================================================================

   base      :      30000. kBytes
   nonl-proj :      36859. kBytes
   fftplans  :      51722. kBytes
   grid      :      49766. kBytes
   one-center:        622. kBytes
   wavefun   :     237271. kBytes
 
 Broyden mixing: mesh for mixing (old mesh)
   NGX = 19   NGY = 27   NGZ = 19
  (NGX  = 80   NGY  =108   NGZ  = 80)
  gives a total of   9747 points

 initial charge density was supplied:
 charge density of overlapping atoms calculated
 number of electron     140.0000000 magnetization       1.0734345     -0.7201271      0.6965874
 keeping initial charge density in first step


--------------------------------------------------------------------------------------------------------


 Maximum index for augmentation-charges        39287 (set IRDMAX)


--------------------------------------------------------------------------------------------------------


 First call to EWALD:  gamma=   0.301
 Maximum number of real-space cells 3x 2x 3
 Maximum number of reciprocal cells 3x 3x 2

 FEWALD executed in parallel
    FEWALD:  cpu time    0.00: real time    0.00


----------------------------------------- Iteration    1(   1)  ---------------------------------------


    POTLOK:  cpu time    0.70: real time    0.70
    SETDIJ:  cpu time    0.98: real time    0.99
     EDDAV:  cpu time   76.57: real time   76.63
 BZINTS: Fermi energy: 28.014339;140.000000 electrons
         Band energy:1385.801196;  BLOECHL correction: -0.050255
       DOS:  cpu time    0.05: real time    0.06
    --------------------------------------------
      LOOP:  cpu time   78.32: real time   78.38

 eigenvalue-minimisations  : 10936
 total energy-change (2. order) : 0.2168296E+04  (-0.6134508E+04)
 number of electron     140.0000000 magnetization       1.0734345     -0.7201271      0.6965874
 augmentation part      140.0000000 magnetization       1.0734345     -0.7201271      0.6965874

 Free energy of the ion-electron system (eV)
  ---------------------------------------------------
  alpha Z        PSCENC =       758.21488044
  Ewald energy   TEWEN  =     -9355.49812094
  -1/2 Hartree   DENC   =     -2038.70837646
  -exchange  EXHF       =         0.00000000
  -V(xc)+E(xc)   XCENC  =       460.46792923
  PAW double counting   =      8768.35500400    -8689.97295694
  entropy T*S    EENTRO =         0.00000000
  eigenvalues    EBANDS =      1385.80119601
  atomic energy  EATOM  =     10879.63728356
  ---------------------------------------------------
  free energy    TOTEN  =      2168.29581906 eV

  energy without entropy =     2168.29581906  energy(sigma->0) =     2168.29581906


--------------------------------------------------------------------------------------------------------




----------------------------------------- Iteration    1(   2)  ---------------------------------------


     EDDAV:  cpu time   77.19: real time   77.28
 BZINTS: Fermi energy: 12.268545;140.000000 electrons
         Band energy:-486.461359;  BLOECHL correction: -0.026780
       DOS:  cpu time    0.06: real time    0.06
    --------------------------------------------
      LOOP:  cpu time   77.24: real time   77.36

 eigenvalue-minimisations  : 11052
 total energy-change (2. order) :-0.1872263E+04  (-0.1790211E+04)
 number of electron     140.0000000 magnetization       1.0734345     -0.7201271      0.6965874
 augmentation part      140.0000000 magnetization       1.0734345     -0.7201271      0.6965874

 Free energy of the ion-electron system (eV)
  ---------------------------------------------------
  alpha Z        PSCENC =       758.21488044
  Ewald energy   TEWEN  =     -9355.49812094
  -1/2 Hartree   DENC   =     -2038.70837646
  -exchange  EXHF       =         0.00000000
  -V(xc)+E(xc)   XCENC  =       460.46792923
  PAW double counting   =      8768.35500400    -8689.97295694
  entropy T*S    EENTRO =         0.00000000
  eigenvalues    EBANDS =      -486.46135944
  atomic energy  EATOM  =     10879.63728356
  ---------------------------------------------------
  free energy    TOTEN  =       296.03326361 eV

  energy without entropy =      296.03326361  energy(sigma->0) =      296.03326361


--------------------------------------------------------------------------------------------------------




----------------------------------------- Iteration    1(   3)  ---------------------------------------


     EDDAV:  cpu time   94.22: real time   94.92
 BZINTS: Fermi energy:  9.374800;140.000000 electrons
         Band energy:-915.202932;  BLOECHL correction: -0.013460
       DOS:  cpu time    0.06: real time    0.06
    --------------------------------------------
      LOOP:  cpu time   94.28: real time   94.98

 eigenvalue-minimisations  : 14544
 total energy-change (2. order) :-0.4287416E+03  (-0.4043990E+03)
 number of electron     140.0000000 magnetization       1.0734345     -0.7201271      0.6965874
 augmentation part      140.0000000 magnetization       1.0734345     -0.7201271      0.6965874

 Free energy of the ion-electron system (eV)
  ---------------------------------------------------
  alpha Z        PSCENC =       758.21488044
  Ewald energy   TEWEN  =     -9355.49812094
  -1/2 Hartree   DENC   =     -2038.70837646
  -exchange  EXHF       =         0.00000000
  -V(xc)+E(xc)   XCENC  =       460.46792923
  PAW double counting   =      8768.35500400    -8689.97295694
  entropy T*S    EENTRO =         0.00000000
  eigenvalues    EBANDS =      -915.20293233
  atomic energy  EATOM  =     10879.63728356
  ---------------------------------------------------
  free energy    TOTEN  =      -132.70830928 eV

  energy without entropy =     -132.70830928  energy(sigma->0) =     -132.70830928


--------------------------------------------------------------------------------------------------------




----------------------------------------- Iteration    1(   4)  ---------------------------------------


     EDDAV:  cpu time  110.33: real time  110.79
 BZINTS: Fermi energy:  8.382445;140.000000 electrons
         Band energy:-970.145139;  BLOECHL correction:  0.000000
       DOS:  cpu time    0.01: real time    0.01
    --------------------------------------------
      LOOP:  cpu time  110.34: real time  110.80

 eigenvalue-minimisations  : 17760
 total energy-change (2. order) :-0.5494221E+02  (-0.5366483E+02)
 number of electron     140.0000000 magnetization       1.0734345     -0.7201271      0.6965874
 augmentation part      140.0000000 magnetization       1.0734345     -0.7201271      0.6965874

 Free energy of the ion-electron system (eV)
  ---------------------------------------------------
  alpha Z        PSCENC =       758.21488044
  Ewald energy   TEWEN  =     -9355.49812094
  -1/2 Hartree   DENC   =     -2038.70837646
  -exchange  EXHF       =         0.00000000
  -V(xc)+E(xc)   XCENC  =       460.46792923
  PAW double counting   =      8768.35500400    -8689.97295694
  entropy T*S    EENTRO =         0.00000000
  eigenvalues    EBANDS =      -970.14513925
  atomic energy  EATOM  =     10879.63728356
  ---------------------------------------------------
  free energy    TOTEN  =      -187.65051620 eV

  energy without entropy =     -187.65051620  energy(sigma->0) =     -187.65051620


--------------------------------------------------------------------------------------------------------




----------------------------------------- Iteration    1(   5)  ---------------------------------------


     EDDAV:  cpu time  117.80: real time  118.38
 BZINTS: Fermi energy:  8.357184;140.000000 electrons
         Band energy:-973.437370;  BLOECHL correction:  0.000000
       DOS:  cpu time    0.01: real time    0.01
 


 total charge     
 
# of ion     s       p       d       tot
----------------------------------------
  1        2.020   5.860   0.261   8.140
  2        2.020   5.860   0.261   8.140
  3        2.020   5.860   0.261   8.141
  4        2.020   5.860   0.261   8.140
  5        0.294   0.464   3.418   4.175
  6        0.294   0.464   3.422   4.180
  7        0.294   0.464   3.406   4.163
  8        0.294   0.464   3.411   4.168
  9        1.604   4.086   0.000   5.690
 10        1.604   4.085   0.000   5.689
 11        1.604   4.085   0.000   5.689
 12        1.604   4.086   0.000   5.690
 13        1.603   4.084   0.000   5.686
 14        1.603   4.084   0.000   5.687
 15        1.603   4.085   0.000   5.688
 16        1.603   4.085   0.000   5.688
 17        1.603   4.084   0.000   5.687
 18        1.603   4.083   0.000   5.686
 19        1.603   4.085   0.000   5.688
 20        1.603   4.085   0.000   5.688
------------------------------------------------
tot       28.490  74.311  14.701 117.502
 


 magnetization (x)
 
# of ion     s       p       d       tot
----------------------------------------
  1       -0.000   0.000   0.004   0.004
  2       -0.000   0.000   0.003   0.004
  3        0.000   0.000   0.004   0.004
  4       -0.000   0.000   0.004   0.004
  5        0.001   0.002  -0.042  -0.039
  6        0.007   0.012   2.135   2.154
  7        0.000   0.001   0.259   0.260
  8       -0.005  -0.007  -1.403  -1.416
  9       -0.000   0.004   0.000   0.004
 10       -0.000   0.001   0.000   0.001
 11       -0.000   0.001   0.000   0.001
 12       -0.000   0.004   0.000   0.004
 13        0.001  -0.005   0.000  -0.005
 14        0.001  -0.005   0.000  -0.004
 15       -0.001   0.010   0.000   0.009
 16       -0.001   0.010   0.000   0.009
 17        0.001  -0.005   0.000  -0.005
 18        0.001  -0.005   0.000  -0.004
 19       -0.001   0.010   0.000   0.009
 20       -0.001   0.010   0.000   0.009
------------------------------------------------
tot        0.002   0.037   0.964   1.003
 


 magnetization (y)
 
# of ion     s       p       d       tot
----------------------------------------
  1       -0.000  -0.000  -0.001  -0.001
  2       -0.000  -0.000  -0.001  -0.001
  3        0.000  -0.000  -0.001  -0.001
  4       -0.000  -0.000  -0.001  -0.001
  5        0.002   0.004   0.529   0.534
  6        0.002   0.002   0.458   0.462
  7       -0.000   0.000   0.154   0.154
  8       -0.006  -0.009  -1.509  -1.523
  9        0.001  -0.004   0.000  -0.004
 10       -0.000   0.003   0.000   0.003
 11       -0.000   0.003   0.000   0.003
 12        0.001  -0.005   0.000  -0.004
 13        0.001  -0.006   0.000  -0.005
 14        0.001  -0.006   0.000  -0.005
 15       -0.001   0.004   0.000   0.004
 16       -0.001   0.005   0.000   0.004
 17        0.001  -0.006   0.000  -0.005
 18        0.001  -0.006   0.000  -0.005
 19       -0.001   0.005   0.000   0.004
 20       -0.001   0.005   0.000   0.004
------------------------------------------------
tot       -0.000  -0.010  -0.374  -0.384
 


 magnetization (z)
 
# of ion     s       p       d       tot
----------------------------------------
  1        0.000   0.000   0.003   0.003
  2       -0.000   0.000   0.003   0.003
  3       -0.000   0.000   0.003   0.003
  4        0.000   0.000   0.003   0.003
  5        0.007   0.011   2.109   2.128
  6        0.002   0.003   0.118   0.122
  7       -0.007  -0.012  -2.118  -2.138
  8        0.001   0.002   0.624   0.627
  9       -0.000   0.004   0.000   0.003
 10        0.000   0.001   0.000   0.001
 11        0.000   0.001   0.000   0.001
 12       -0.000   0.004   0.000   0.003
 13        0.001  -0.006   0.000  -0.005
 14        0.001  -0.007   0.000  -0.006
 15       -0.001   0.011   0.000   0.009
 16       -0.001   0.010   0.000   0.009
 17        0.001  -0.006   0.000  -0.005
 18        0.001  -0.007   0.000  -0.006
 19       -0.001   0.011   0.000   0.010
 20       -0.001   0.010   0.000   0.009
------------------------------------------------
tot        0.001   0.031   0.744   0.776
 
    CHARGE:  cpu time    7.16: real time    7.18
    MIXING:  cpu time    0.01: real time    0.01
    --------------------------------------------
      LOOP:  cpu time  125.05: real time  125.64

 eigenvalue-minimisations  : 19296
 total energy-change (2. order) :-0.3292231E+01  (-0.3254012E+01)
 number of electron     140.0000002 magnetization       1.0798386     -0.6645346      0.7267697
 augmentation part       28.7509408 magnetization       0.6115320     -0.4872095      0.3643480

 Broyden mixing:
  rms(total) = 0.62602E+01    rms(broyden)= 0.62594E+01
  rms(prec ) = 0.83079E+01
  weight for this iteration     100.00

 Free energy of the ion-electron system (eV)
  ---------------------------------------------------
  alpha Z        PSCENC =       758.21488044
  Ewald energy   TEWEN  =     -9355.49812094
  -1/2 Hartree   DENC   =     -2038.70837646
  -exchange  EXHF       =         0.00000000
  -V(xc)+E(xc)   XCENC  =       460.46792923
  PAW double counting   =      8768.35500400    -8689.97295694
  entropy T*S    EENTRO =         0.00000000
  eigenvalues    EBANDS =      -973.43737047
  atomic energy  EATOM  =     10879.63728356
  ---------------------------------------------------
  free energy    TOTEN  =      -190.94274742 eV

  energy without entropy =     -190.94274742  energy(sigma->0) =     -190.94274742


--------------------------------------------------------------------------------------------------------




----------------------------------------- Iteration    1(   6)  ---------------------------------------


    POTLOK:  cpu time    0.69: real time    0.70
    SETDIJ:  cpu time    0.90: real time    0.90
     EDDAV:  cpu time  112.96: real time  113.42
 BZINTS: Fermi energy:  6.634879;140.000000 electrons
         Band energy:***********;  BLOECHL correction: -0.023470
       DOS:  cpu time    0.06: real time    0.06
    CHARGE:  cpu time    7.13: real time    7.19
    MIXING:  cpu time    0.01: real time    0.02
    --------------------------------------------
      LOOP:  cpu time  121.77: real time  122.29

 eigenvalue-minimisations  : 18296
 total energy-change (2. order) :-0.2657470E+03  (-0.1322890E+03)
 number of electron     140.0000003 magnetization       1.0780225     -0.6679893      0.7239642
 augmentation part       44.8635997 magnetization       0.5705315      0.2814361      0.6046822

 Broyden mixing:
  rms(total) = 0.41025E+02    rms(broyden)= 0.41025E+02
  rms(prec ) = 0.43802E+02
  weight for this iteration     100.00

 eigenvalues of (default mixing * dielectric matrix)
  average eigenvalue GAMMA=   0.0186
  0.0186

 Free energy of the ion-electron system (eV)
  ---------------------------------------------------
  alpha Z        PSCENC =       758.21488044
  Ewald energy   TEWEN  =     -9355.49812094
  -1/2 Hartree   DENC   =     -2235.83324166
  -exchange  EXHF       =         0.00000000
  -V(xc)+E(xc)   XCENC  =       486.24565176
  PAW double counting   =     10007.69940979    -9939.63266584
  entropy T*S    EENTRO =         0.00000000
  eigenvalues    EBANDS =     -1057.06381400
  atomic energy  EATOM  =     10879.63728356
  ---------------------------------------------------
  free energy    TOTEN  =      -456.68973419 eV

  energy without entropy =     -456.68973419  energy(sigma->0) =     -456.68973419


--------------------------------------------------------------------------------------------------------




----------------------------------------- Iteration    1(   7)  ---------------------------------------


    POTLOK:  cpu time    0.69: real time    0.69
    SETDIJ:  cpu time    0.94: real time    0.94
     EDDAV:  cpu time   95.51: real time   95.77
 BZINTS: Fermi energy:  5.754762;140.000000 electrons
         Band energy:***********;  BLOECHL correction: -0.049470
       DOS:  cpu time    0.07: real time    0.07
    CHARGE:  cpu time    7.19: real time    7.21
    MIXING:  cpu time    0.01: real time    0.02
    --------------------------------------------
      LOOP:  cpu time  104.40: real time  104.68

 eigenvalue-minimisations  : 14732
 total energy-change (2. order) : 0.7746072E+01  (-0.4465729E+02)
 number of electron     140.0000003 magnetization       1.0492803     -0.6328817      0.7048861
 augmentation part       43.4116163 magnetization       0.6191961      0.0669044      0.6030288

 Broyden mixing:
  rms(total) = 0.29461E+02    rms(broyden)= 0.29461E+02
  rms(prec ) = 0.33263E+02
  weight for this iteration     100.00

 eigenvalues of (default mixing * dielectric matrix)
  average eigenvalue GAMMA=   0.1265
  0.1265  0.1265

 Free energy of the ion-electron system (eV)
  ---------------------------------------------------
  alpha Z        PSCENC =       758.21488044
  Ewald energy   TEWEN  =     -9355.49812094
  -1/2 Hartree   DENC   =     -2224.14017079
  -exchange  EXHF       =         0.00000000
  -V(xc)+E(xc)   XCENC  =       484.74282168
  PAW double counting   =     10109.90548495   -10044.31820679
  entropy T*S    EENTRO =         0.00000000
  eigenvalues    EBANDS =     -1057.05182533
  atomic energy  EATOM  =     10879.63728356
  ---------------------------------------------------
  free energy    TOTEN  =      -448.94366233 eV

  energy without entropy =     -448.94366233  energy(sigma->0) =     -448.94366233


--------------------------------------------------------------------------------------------------------




----------------------------------------- Iteration    1(   8)  ---------------------------------------


    POTLOK:  cpu time    0.71: real time    0.73
    SETDIJ:  cpu time    0.89: real time    0.89
     EDDAV:  cpu time  100.18: real time  100.52
 BZINTS: Fermi energy:  3.746464;140.000000 electrons
         Band energy:-883.589467;  BLOECHL correction:  0.000000
       DOS:  cpu time    0.01: real time    0.01
    CHARGE:  cpu time    7.02: real time    7.03
    MIXING:  cpu time    0.01: real time    0.01
    --------------------------------------------
      LOOP:  cpu time  108.83: real time  109.19

 eigenvalue-minimisations  : 15664
 total energy-change (2. order) : 0.2920760E+03  (-0.2979366E+02)
 number of electron     140.0000002 magnetization       1.0968600     -0.8557959      0.6474434
 augmentation part       34.0166960 magnetization       0.6891867      0.3226730      0.8076551

 Broyden mixing:
  rms(total) = 0.75483E+01    rms(broyden)= 0.75474E+01
  rms(prec ) = 0.84809E+01
  weight for this iteration     100.00

 eigenvalues of (default mixing * dielectric matrix)
  average eigenvalue GAMMA=   0.2190
  0.3436  0.1567  0.1567

 Free energy of the ion-electron system (eV)
  ---------------------------------------------------
  alpha Z        PSCENC =       758.21488044
  Ewald energy   TEWEN  =     -9355.49812094
  -1/2 Hartree   DENC   =     -2078.44200898
  -exchange  EXHF       =         0.00000000
  -V(xc)+E(xc)   XCENC  =       469.33613574
  PAW double counting   =     10113.50971221   -10059.69836869
  entropy T*S    EENTRO =         0.00000000
  eigenvalues    EBANDS =      -883.58946749
  atomic energy  EATOM  =     10879.63728356
  ---------------------------------------------------
  free energy    TOTEN  =      -156.86769815 eV

  energy without entropy =     -156.86769815  energy(sigma->0) =     -156.86769815


--------------------------------------------------------------------------------------------------------




----------------------------------------- Iteration    1(   9)  ---------------------------------------


    POTLOK:  cpu time    0.69: real time    0.69
    SETDIJ:  cpu time    0.92: real time    0.92
     EDDAV:  cpu time  113.87: real time  114.24
 BZINTS: Fermi energy:  4.019770;140.000000 electrons
         Band energy:-908.836638;  BLOECHL correction:  0.000000
       DOS:  cpu time    0.01: real time    0.01
    CHARGE:  cpu time    7.00: real time    7.06
    MIXING:  cpu time    0.02: real time    0.02
    --------------------------------------------
      LOOP:  cpu time  122.50: real time  122.93

 eigenvalue-minimisations  : 18440
 total energy-change (2. order) :-0.1283050E+02  (-0.1208261E+02)
 number of electron     140.0000002 magnetization       1.0041777     -0.7042581      0.6200544
 augmentation part       30.2670603 magnetization       1.1457300     -1.4810960      0.4622126

 Broyden mixing:
  rms(total) = 0.60927E+01    rms(broyden)= 0.60922E+01
  rms(prec ) = 0.61682E+01
  weight for this iteration     100.00

 eigenvalues of (default mixing * dielectric matrix)
  average eigenvalue GAMMA=   0.2867
  0.6437  0.1490  0.1490  0.2052

 Free energy of the ion-electron system (eV)
  ---------------------------------------------------
  alpha Z        PSCENC =       758.21488044
  Ewald energy   TEWEN  =     -9355.49812094
  -1/2 Hartree   DENC   =     -2056.46606800
  -exchange  EXHF       =         0.00000000
  -V(xc)+E(xc)   XCENC  =       466.24002879
  PAW double counting   =     10193.83134676   -10145.70584188
  entropy T*S    EENTRO =         0.00000000
  eigenvalues    EBANDS =      -908.83663759
  atomic energy  EATOM  =     10879.63728356
  ---------------------------------------------------
  free energy    TOTEN  =      -169.69819384 eV

  energy without entropy =     -169.69819384  energy(sigma->0) =     -169.69819384


--------------------------------------------------------------------------------------------------------




----------------------------------------- Iteration    1(  10)  ---------------------------------------


    POTLOK:  cpu time    0.69: real time    0.69
    SETDIJ:  cpu time    0.88: real time    0.90
     EDDAV:  cpu time  106.75: real time  107.06
 BZINTS: Fermi energy:  4.594125;140.000000 electrons
         Band energy:-888.894632;  BLOECHL correction:  0.000000
       DOS:  cpu time    0.01: real time    0.01
 


 total charge     
 
# of ion     s       p       d       tot
----------------------------------------
  1        2.032   5.872   0.277   8.181
  2        2.032   5.872   0.277   8.181
  3        2.032   5.872   0.277   8.181
  4        2.032   5.872   0.277   8.180
  5        0.355   0.572   4.657   5.585
  6        0.355   0.573   4.665   5.593
  7        0.354   0.568   4.649   5.571
  8        0.353   0.567   4.628   5.548
  9        1.581   3.612   0.000   5.194
 10        1.579   3.584   0.000   5.164
 11        1.582   3.623   0.000   5.205
 12        1.581   3.601   0.000   5.182
 13        1.575   3.558   0.000   5.133
 14        1.576   3.570   0.000   5.146
 15        1.575   3.554   0.000   5.129
 16        1.578   3.592   0.000   5.170
 17        1.575   3.559   0.000   5.134
 18        1.574   3.542   0.000   5.115
 19        1.576   3.560   0.000   5.136
 20        1.576   3.560   0.000   5.136
------------------------------------------------
tot       28.474  68.683  19.706 116.863
 


 magnetization (x)
 
# of ion     s       p       d       tot
----------------------------------------
  1        0.000   0.000   0.002   0.002
  2        0.000   0.000   0.002   0.002
  3        0.000   0.000   0.002   0.002
  4        0.000   0.000   0.002   0.002
  5        0.008   0.010   1.154   1.173
  6        0.007   0.011   1.947   1.966
  7       -0.007  -0.013  -1.084  -1.105
  8       -0.003  -0.003  -0.785  -0.790
  9       -0.000   0.016   0.000   0.016
 10        0.000   0.005   0.000   0.006
 11        0.000   0.005   0.000   0.005
 12       -0.000   0.017   0.000   0.017
 13       -0.000  -0.020   0.000  -0.020
 14       -0.000  -0.019   0.000  -0.020
 15        0.001   0.045   0.000   0.045
 16        0.001   0.041   0.000   0.042
 17       -0.000  -0.020   0.000  -0.020
 18       -0.000  -0.020   0.000  -0.020
 19        0.001   0.044   0.000   0.044
 20        0.001   0.044   0.000   0.044
------------------------------------------------
tot        0.008   0.146   1.239   1.393
 


 magnetization (y)
 
# of ion     s       p       d       tot
----------------------------------------
  1       -0.001  -0.000  -0.002  -0.003
  2       -0.001  -0.000  -0.002  -0.004
  3       -0.001  -0.000  -0.002  -0.004
  4       -0.001  -0.000  -0.002  -0.003
  5        0.005   0.008   0.947   0.960
  6        0.001   0.002   0.186   0.189
  7       -0.007  -0.010  -1.062  -1.079
  8       -0.011  -0.015  -2.115  -2.141
  9       -0.001  -0.016   0.000  -0.016
 10       -0.001   0.002   0.000   0.001
 11       -0.001   0.002   0.000   0.001
 12       -0.001  -0.016   0.000  -0.017
 13       -0.001  -0.039   0.000  -0.040
 14       -0.001  -0.039   0.000  -0.041
 15       -0.000   0.012   0.000   0.012
 16       -0.000   0.013   0.000   0.013
 17       -0.001  -0.039   0.000  -0.040
 18       -0.001  -0.041   0.000  -0.042
 19       -0.000   0.011   0.000   0.011
 20       -0.000   0.013   0.000   0.013
------------------------------------------------
tot       -0.025  -0.153  -2.051  -2.230
 


 magnetization (z)
 
# of ion     s       p       d       tot
----------------------------------------
  1       -0.000   0.000   0.001   0.001
  2       -0.000   0.000   0.001   0.001
  3       -0.000   0.000   0.001   0.001
  4       -0.000   0.000   0.001   0.001
  5        0.007   0.011   1.816   1.834
  6        0.008   0.011   1.293   1.312
  7       -0.009  -0.013  -1.890  -1.912
  8       -0.006  -0.009  -0.814  -0.829
  9        0.000   0.008   0.000   0.008
 10       -0.000   0.006   0.000   0.005
 11       -0.000   0.005   0.000   0.004
 12       -0.000   0.008   0.000   0.008
 13       -0.001  -0.031   0.000  -0.032
 14       -0.001  -0.030   0.000  -0.031
 15        0.001   0.042   0.000   0.043
 16        0.001   0.040   0.000   0.041
 17       -0.001  -0.032   0.000  -0.032
 18       -0.001  -0.032   0.000  -0.032
 19        0.001   0.042   0.000   0.043
 20        0.000   0.042   0.000   0.042
------------------------------------------------
tot       -0.002   0.071   0.408   0.477
 
    CHARGE:  cpu time    7.10: real time    7.11
    MIXING:  cpu time    0.02: real time    0.02
    --------------------------------------------
      LOOP:  cpu time  115.51: real time  115.85

 eigenvalue-minimisations  : 17008
 total energy-change (2. order) : 0.2115879E+02  (-0.3274006E+01)
 number of electron     140.0000002 magnetization       1.0003248     -0.7607971      0.6016188
 augmentation part       30.3538729 magnetization       0.4689095      0.0345399      0.3963450

 Broyden mixing:
  rms(total) = 0.34457E+01    rms(broyden)= 0.34452E+01
  rms(prec ) = 0.35502E+01
  weight for this iteration     100.00

 eigenvalues of (default mixing * dielectric matrix)
  average eigenvalue GAMMA=   0.3615
  1.0017  0.3385  0.1509  0.1509  0.1653

 Free energy of the ion-electron system (eV)
  ---------------------------------------------------
  alpha Z        PSCENC =       758.21488044
  Ewald energy   TEWEN  =     -9355.49812094
  -1/2 Hartree   DENC   =     -2052.74856040
  -exchange  EXHF       =         0.00000000
  -V(xc)+E(xc)   XCENC  =       465.98304165
  PAW double counting   =     10420.53635525   -10375.72916498
  entropy T*S    EENTRO =         0.00000000
  eigenvalues    EBANDS =      -888.89463194
  atomic energy  EATOM  =     10879.63728356
  ---------------------------------------------------
  free energy    TOTEN  =      -148.53940812 eV

  energy without entropy =     -148.53940812  energy(sigma->0) =     -148.53940812


--------------------------------------------------------------------------------------------------------




----------------------------------------- Iteration    1(  11)  ---------------------------------------


    POTLOK:  cpu time    0.68: real time    0.69
    SETDIJ:  cpu time    0.85: real time    0.85
     EDDAV:  cpu time  110.73: real time  111.06
 BZINTS: Fermi energy:  4.431064;140.000000 electrons
         Band energy:-884.317315;  BLOECHL correction:  0.000000
       DOS:  cpu time    0.01: real time    0.01
    CHARGE:  cpu time    7.02: real time    7.04
    MIXING:  cpu time    0.02: real time    0.02
    --------------------------------------------
      LOOP:  cpu time  119.32: real time  119.66

 eigenvalue-minimisations  : 17824
 total energy-change (2. order) : 0.8603047E-02  (-0.9433460E+00)
 number of electron     140.0000002 magnetization       1.0495408     -0.7236562      0.6696246
 augmentation part       30.8590027 magnetization       0.1534253     -0.8466628     -0.2953475

 Broyden mixing:
  rms(total) = 0.30825E+01    rms(broyden)= 0.30823E+01
  rms(prec ) = 0.31382E+01
  weight for this iteration     100.00

 eigenvalues of (default mixing * dielectric matrix)
  average eigenvalue GAMMA=   0.3424
  1.0865  0.3457  0.1523  0.1523  0.1587  0.1587

 Free energy of the ion-electron system (eV)
  ---------------------------------------------------
  alpha Z        PSCENC =       758.21488044
  Ewald energy   TEWEN  =     -9355.49812094
  -1/2 Hartree   DENC   =     -2054.96560162
  -exchange  EXHF       =         0.00000000
  -V(xc)+E(xc)   XCENC  =       466.73230323
  PAW double counting   =     10663.84470573   -10622.14370789
  entropy T*S    EENTRO =         0.00000000
  eigenvalues    EBANDS =      -884.31731534
  atomic energy  EATOM  =     10879.63728356
  ---------------------------------------------------
  free energy    TOTEN  =      -148.53080507 eV

  energy without entropy =     -148.53080507  energy(sigma->0) =     -148.53080507


--------------------------------------------------------------------------------------------------------




----------------------------------------- Iteration    1(  12)  ---------------------------------------


    POTLOK:  cpu time    0.68: real time    0.68
    SETDIJ:  cpu time    0.85: real time    0.85
     EDDAV:  cpu time  106.76: real time  107.36
 BZINTS: Fermi energy:  4.242737;140.000000 electrons
         Band energy:-878.967551;  BLOECHL correction:  0.000000
       DOS:  cpu time    0.01: real time    0.01
    CHARGE:  cpu time    7.00: real time    7.02
    MIXING:  cpu time    0.02: real time    0.02
    --------------------------------------------
      LOOP:  cpu time  115.33: real time  115.95

 eigenvalue-minimisations  : 17064
 total energy-change (2. order) : 0.8200776E+00  (-0.3975069E+00)
 number of electron     140.0000002 magnetization       1.0478111     -0.7285969      0.6625671
 augmentation part       30.8444451 magnetization       0.7845161     -0.2004937      0.6504168

 Broyden mixing:
  rms(total) = 0.26327E+01    rms(broyden)= 0.26325E+01
  rms(prec ) = 0.26625E+01
  weight for this iteration     100.00

 eigenvalues of (default mixing * dielectric matrix)
  average eigenvalue GAMMA=   0.3368
  0.8783  0.4483  0.4483  0.1511  0.1511  0.1780  0.1025

 Free energy of the ion-electron system (eV)
  ---------------------------------------------------
  alpha Z        PSCENC =       758.21488044
  Ewald energy   TEWEN  =     -9355.49812094
  -1/2 Hartree   DENC   =     -2058.82924320
  -exchange  EXHF       =         0.00000000
  -V(xc)+E(xc)   XCENC  =       467.14255976
  PAW double counting   =     10725.44824727   -10684.84991452
  entropy T*S    EENTRO =         0.00000000
  eigenvalues    EBANDS =      -878.96755113
  atomic energy  EATOM  =     10879.63728356
  ---------------------------------------------------
  free energy    TOTEN  =      -147.71072745 eV

  energy without entropy =     -147.71072745  energy(sigma->0) =     -147.71072745


--------------------------------------------------------------------------------------------------------




----------------------------------------- Iteration    1(  13)  ---------------------------------------


    POTLOK:  cpu time    0.69: real time    0.68
    SETDIJ:  cpu time    0.89: real time    0.90
     EDDAV:  cpu time  105.14: real time  105.62
 BZINTS: Fermi energy:  4.538425;140.000000 electrons
         Band energy:-874.566471;  BLOECHL correction: -0.006461
       DOS:  cpu time    0.06: real time    0.06
    CHARGE:  cpu time    7.13: real time    7.14
    MIXING:  cpu time    0.02: real time    0.02
    --------------------------------------------
      LOOP:  cpu time  113.93: real time  114.41

 eigenvalue-minimisations  : 16704
 total energy-change (2. order) :-0.4016261E+00  (-0.1656409E+00)
 number of electron     140.0000002 magnetization       1.0529607     -0.7418170      0.6991283
 augmentation part       30.5851884 magnetization       0.5738347     -0.1641690      0.3872673

 Broyden mixing:
  rms(total) = 0.28546E+01    rms(broyden)= 0.28545E+01
  rms(prec ) = 0.29276E+01
  weight for this iteration     100.00

 eigenvalues of (default mixing * dielectric matrix)
  average eigenvalue GAMMA=   0.4255
  0.9995  0.9995  0.5747  0.1512  0.1512  0.2605  0.1602  0.1074

 Free energy of the ion-electron system (eV)
  ---------------------------------------------------
  alpha Z        PSCENC =       758.21488044
  Ewald energy   TEWEN  =     -9355.49812094
  -1/2 Hartree   DENC   =     -2063.38104837
  -exchange  EXHF       =         0.00000000
  -V(xc)+E(xc)   XCENC  =       467.45534285
  PAW double counting   =     10718.11456426   -10678.07234581
  entropy T*S    EENTRO =         0.00000000
  eigenvalues    EBANDS =      -874.56647087
  atomic energy  EATOM  =     10879.63728356
  ---------------------------------------------------
  free energy    TOTEN  =      -148.11235354 eV

  energy without entropy =     -148.11235354  energy(sigma->0) =     -148.11235354


--------------------------------------------------------------------------------------------------------




----------------------------------------- Iteration    1(  14)  ---------------------------------------


    POTLOK:  cpu time    0.70: real time    0.70
    SETDIJ:  cpu time    0.87: real time    0.87
     EDDAV:  cpu time  110.59: real time  111.04
 BZINTS: Fermi energy:  4.885763;140.000000 electrons
         Band energy:-875.430935;  BLOECHL correction: -0.006575
       DOS:  cpu time    0.06: real time    0.06
    CHARGE:  cpu time    7.04: real time    7.07
    MIXING:  cpu time    0.02: real time    0.02
    --------------------------------------------
      LOOP:  cpu time  119.28: real time  119.83

 eigenvalue-minimisations  : 17840
 total energy-change (2. order) :-0.3102220E+01  (-0.6887918E+00)
 number of electron     140.0000002 magnetization       1.0433405     -0.8062789      0.6933251
 augmentation part       30.4953533 magnetization       0.7347110      0.0221141      0.8417497

 Broyden mixing:
  rms(total) = 0.37616E+01    rms(broyden)= 0.37615E+01
  rms(prec ) = 0.50432E+01
  weight for this iteration     100.00

 eigenvalues of (default mixing * dielectric matrix)
  average eigenvalue GAMMA=   0.4547
  1.3160  0.8876  0.8876  0.3226  0.1512  0.1512  0.1668  0.1075  0.1019

 Free energy of the ion-electron system (eV)
  ---------------------------------------------------
  alpha Z        PSCENC =       758.21488044
  Ewald energy   TEWEN  =     -9355.49812094
  -1/2 Hartree   DENC   =     -2064.59801675
  -exchange  EXHF       =         0.00000000
  -V(xc)+E(xc)   XCENC  =       467.81576719
  PAW double counting   =     10754.88581213   -10716.19349049
  entropy T*S    EENTRO =         0.00000000
  eigenvalues    EBANDS =      -875.43093524
  atomic energy  EATOM  =     10879.63728356
  ---------------------------------------------------
  free energy    TOTEN  =      -151.21457340 eV

  energy without entropy =     -151.21457340  energy(sigma->0) =     -151.21457340


--------------------------------------------------------------------------------------------------------




----------------------------------------- Iteration    1(  15)  ---------------------------------------


    POTLOK:  cpu time    0.68: real time    0.69
    SETDIJ:  cpu time    0.86: real time    0.87
     EDDAV:  cpu time  111.72: real time  112.11
 BZINTS: Fermi energy:  4.756158;140.000000 electrons
         Band energy:-877.340525;  BLOECHL correction: -0.025117
       DOS:  cpu time    0.06: real time    0.07
 


 total charge     
 
# of ion     s       p       d       tot
----------------------------------------
  1        2.028   5.873   0.278   8.179
  2        2.028   5.873   0.279   8.180
  3        2.028   5.873   0.278   8.179
  4        2.028   5.873   0.278   8.180
  5        0.354   0.573   5.889   6.816
  6        0.349   0.563   5.199   6.112
  7        0.342   0.547   3.163   4.052
  8        0.353   0.572   5.128   6.052
  9        1.574   3.562   0.000   5.136
 10        1.573   3.548   0.000   5.121
 11        1.573   3.539   0.000   5.112
 12        1.574   3.570   0.000   5.143
 13        1.566   3.434   0.000   5.000
 14        1.566   3.430   0.000   4.997
 15        1.573   3.579   0.000   5.152
 16        1.574   3.578   0.000   5.152
 17        1.566   3.430   0.000   4.995
 18        1.565   3.431   0.000   4.997
 19        1.573   3.574   0.000   5.147
 20        1.573   3.583   0.000   5.156
------------------------------------------------
tot       28.360  68.005  20.493 116.858
 


 magnetization (x)
 
# of ion     s       p       d       tot
----------------------------------------
  1        0.000   0.000   0.000   0.001
  2        0.000   0.000   0.001   0.001
  3        0.000   0.000   0.001   0.001
  4        0.000   0.000   0.000   0.001
  5        0.002   0.000   0.163   0.165
  6        0.010   0.017   2.134   2.161
  7        0.002   0.003   0.169   0.173
  8       -0.002  -0.004  -0.933  -0.940
  9        0.001   0.024   0.000   0.025
 10        0.000  -0.002   0.000  -0.001
 11        0.000  -0.002   0.000  -0.002
 12        0.001   0.024   0.000   0.025
 13       -0.000  -0.027   0.000  -0.027
 14       -0.000  -0.028   0.000  -0.028
 15        0.002   0.032   0.000   0.035
 16        0.003   0.033   0.000   0.036
 17       -0.000  -0.027   0.000  -0.027
 18       -0.000  -0.027   0.000  -0.027
 19        0.002   0.032   0.000   0.035
 20        0.002   0.033   0.000   0.035
------------------------------------------------
tot        0.023   0.084   1.534   1.641
 


 magnetization (y)
 
# of ion     s       p       d       tot
----------------------------------------
  1       -0.000  -0.000  -0.002  -0.003
  2       -0.000  -0.001  -0.002  -0.003
  3       -0.000  -0.001  -0.002  -0.003
  4       -0.000  -0.000  -0.002  -0.003
  5        0.011   0.021   1.467   1.500
  6       -0.007  -0.015  -0.861  -0.882
  7        0.000   0.002   0.140   0.142
  8       -0.010  -0.016  -1.979  -2.005
  9       -0.001  -0.036   0.000  -0.037
 10        0.000   0.020   0.000   0.021
 11        0.001   0.022   0.000   0.022
 12       -0.001  -0.036   0.000  -0.037
 13       -0.001  -0.048   0.000  -0.049
 14       -0.001  -0.052   0.000  -0.053
 15        0.001   0.008   0.000   0.009
 16        0.002   0.009   0.000   0.011
 17       -0.001  -0.048   0.000  -0.049
 18       -0.001  -0.050   0.000  -0.051
 19        0.001   0.007   0.000   0.009
 20        0.002   0.009   0.000   0.011
------------------------------------------------
tot       -0.004  -0.206  -1.241  -1.451
 


 magnetization (z)
 
# of ion     s       p       d       tot
----------------------------------------
  1        0.001   0.002   0.004   0.007
  2        0.001   0.001   0.003   0.006
  3        0.001   0.001   0.003   0.006
  4        0.001   0.002   0.004   0.007
  5        0.007   0.011   1.241   1.258
  6        0.005   0.007   0.719   0.731
  7       -0.007  -0.013  -1.151  -1.171
  8        0.001   0.004   0.538   0.543
  9        0.000   0.026   0.000   0.026
 10        0.001   0.058   0.000   0.059
 11        0.001   0.060   0.000   0.061
 12        0.000   0.025   0.000   0.025
 13        0.001   0.039   0.000   0.039
 14        0.001   0.043   0.000   0.043
 15        0.002   0.031   0.000   0.033
 16        0.002   0.031   0.000   0.034
 17        0.001   0.040   0.000   0.040
 18        0.001   0.041   0.000   0.042
 19        0.002   0.031   0.000   0.034
 20        0.002   0.031   0.000   0.033
------------------------------------------------
tot        0.023   0.470   1.362   1.855
 
    CHARGE:  cpu time    7.05: real time    7.06
    MIXING:  cpu time    0.02: real time    0.02
    --------------------------------------------
      LOOP:  cpu time  120.46: real time  121.01

 eigenvalue-minimisations  : 18016
 total energy-change (2. order) : 0.5080971E+00  (-0.4278312E+01)
 number of electron     140.0000002 magnetization       1.0672923     -0.8327026      0.7310040
 augmentation part       30.7392113 magnetization       0.5277162     -0.2539997     -0.0464350

 Broyden mixing:
  rms(total) = 0.34312E+01    rms(broyden)= 0.34310E+01
  rms(prec ) = 0.44173E+01
  weight for this iteration     100.00

 eigenvalues of (default mixing * dielectric matrix)
  average eigenvalue GAMMA=   0.4369
  1.5233  0.8597  0.8597  0.3266  0.1513  0.1513  0.1724  0.1528  0.1045  0.0673

 Free energy of the ion-electron system (eV)
  ---------------------------------------------------
  alpha Z        PSCENC =       758.21488044
  Ewald energy   TEWEN  =     -9355.49812094
  -1/2 Hartree   DENC   =     -2060.20617394
  -exchange  EXHF       =         0.00000000
  -V(xc)+E(xc)   XCENC  =       468.01298306
  PAW double counting   =     10907.20038317   -10870.68274544
  entropy T*S    EENTRO =         0.00000000
  eigenvalues    EBANDS =      -877.34052510
  atomic energy  EATOM  =     10879.63728356
  ---------------------------------------------------
  free energy    TOTEN  =      -150.70647626 eV

  energy without entropy =     -150.70647626  energy(sigma->0) =     -150.70647626


--------------------------------------------------------------------------------------------------------




----------------------------------------- Iteration    1(  16)  ---------------------------------------


    POTLOK:  cpu time    0.69: real time    0.69
    SETDIJ:  cpu time    0.87: real time    0.87
     EDDAV:  cpu time  111.90: real time  112.33
 BZINTS: Fermi energy:  4.627930;140.000000 electrons
         Band energy:-873.624390;  BLOECHL correction: -0.019584
       DOS:  cpu time    0.06: real time    0.06
    CHARGE:  cpu time    7.08: real time    7.13
    MIXING:  cpu time    0.02: real time    0.02
    --------------------------------------------
      LOOP:  cpu time  120.62: real time  121.11

 eigenvalue-minimisations  : 18048
 total energy-change (2. order) : 0.2233863E+01  (-0.7920014E+00)
 number of electron     140.0000002 magnetization       1.0750924     -0.8064746      0.7386203
 augmentation part       30.7392876 magnetization       0.7490263     -0.8445776      0.6189840

 Broyden mixing:
  rms(total) = 0.21728E+01    rms(broyden)= 0.21726E+01
  rms(prec ) = 0.24059E+01
  weight for this iteration     100.00

 eigenvalues of (default mixing * dielectric matrix)
  average eigenvalue GAMMA=   0.4397
  1.5474  0.9575  0.9575  0.3290  0.2813  0.1512  0.1512  0.1639  0.1119  0.1119
  0.0738

 Free energy of the ion-electron system (eV)
  ---------------------------------------------------
  alpha Z        PSCENC =       758.21488044
  Ewald energy   TEWEN  =     -9355.49812094
  -1/2 Hartree   DENC   =     -2061.21431669
  -exchange  EXHF       =         0.00000000
  -V(xc)+E(xc)   XCENC  =       468.15832650
  PAW double counting   =     10946.91050924   -10911.05150237
  entropy T*S    EENTRO =         0.00000000
  eigenvalues    EBANDS =      -873.62438970
  atomic energy  EATOM  =     10879.63728356
  ---------------------------------------------------
  free energy    TOTEN  =      -148.47261332 eV

[...]
     0.0000000     0.0000000     0.0000000     0.0000000     0.0000000
     0.0000000     0.0000000     0.0000000     0.0000000     0.0000000
 l=   3
     0.0000000     0.0000000     0.0000000     0.0000000     0.0000000     0.0000000     0.0000000
     0.0000000     0.0000000     0.0000000     0.0000000     0.0000000     0.0000000     0.0000000
     0.0000000     0.0000000     0.0000000     0.0000000     0.0000000     0.0000000     0.0000000
     0.0000000     0.0000000     0.0000000     0.0000000     0.0000000     0.0000000     0.0000000
     0.0000000     0.0000000     0.0000000     0.0000000     0.0000000     0.0000000     0.0000000
     0.0000000     0.0000000     0.0000000     0.0000000     0.0000000     0.0000000     0.0000000
     0.0000000     0.0000000     0.0000000     0.0000000     0.0000000     0.0000000     0.0000000

 Ion:   10  E_soc:     -0.0002700
 l=   1
     0.0000000    -0.0000528    -0.0000305
    -0.0000528     0.0000000    -0.0000517
    -0.0000305    -0.0000517     0.0000000
 l=   2
     0.0000000     0.0000000     0.0000000     0.0000000     0.0000000
     0.0000000     0.0000000     0.0000000     0.0000000     0.0000000
     0.0000000     0.0000000     0.0000000     0.0000000     0.0000000
     0.0000000     0.0000000     0.0000000     0.0000000     0.0000000
     0.0000000     0.0000000     0.0000000     0.0000000     0.0000000
 l=   3
     0.0000000     0.0000000     0.0000000     0.0000000     0.0000000     0.0000000     0.0000000
     0.0000000     0.0000000     0.0000000     0.0000000     0.0000000     0.0000000     0.0000000
     0.0000000     0.0000000     0.0000000     0.0000000     0.0000000     0.0000000     0.0000000
     0.0000000     0.0000000     0.0000000     0.0000000     0.0000000     0.0000000     0.0000000
     0.0000000     0.0000000     0.0000000     0.0000000     0.0000000     0.0000000     0.0000000
     0.0000000     0.0000000     0.0000000     0.0000000     0.0000000     0.0000000     0.0000000
     0.0000000     0.0000000     0.0000000     0.0000000     0.0000000     0.0000000     0.0000000

 Ion:   11  E_soc:     -0.0002700
 l=   1
     0.0000000    -0.0000528    -0.0000305
    -0.0000528     0.0000000    -0.0000517
    -0.0000305    -0.0000517     0.0000000
 l=   2
     0.0000000     0.0000000     0.0000000     0.0000000     0.0000000
     0.0000000     0.0000000     0.0000000     0.0000000     0.0000000
     0.0000000     0.0000000     0.0000000     0.0000000     0.0000000
     0.0000000     0.0000000     0.0000000     0.0000000     0.0000000
     0.0000000     0.0000000     0.0000000     0.0000000     0.0000000
 l=   3
     0.0000000     0.0000000     0.0000000     0.0000000     0.0000000     0.0000000     0.0000000
     0.0000000     0.0000000     0.0000000     0.0000000     0.0000000     0.0000000     0.0000000
     0.0000000     0.0000000     0.0000000     0.0000000     0.0000000     0.0000000     0.0000000
     0.0000000     0.0000000     0.0000000     0.0000000     0.0000000     0.0000000     0.0000000
     0.0000000     0.0000000     0.0000000     0.0000000     0.0000000     0.0000000     0.0000000
     0.0000000     0.0000000     0.0000000     0.0000000     0.0000000     0.0000000     0.0000000
     0.0000000     0.0000000     0.0000000     0.0000000     0.0000000     0.0000000     0.0000000

 Ion:   12  E_soc:     -0.0002449
 l=   1
     0.0000000    -0.0000411    -0.0000353
    -0.0000411     0.0000000    -0.0000460
    -0.0000353    -0.0000460     0.0000000
 l=   2
     0.0000000     0.0000000     0.0000000     0.0000000     0.0000000
     0.0000000     0.0000000     0.0000000     0.0000000     0.0000000
     0.0000000     0.0000000     0.0000000     0.0000000     0.0000000
     0.0000000     0.0000000     0.0000000     0.0000000     0.0000000
     0.0000000     0.0000000     0.0000000     0.0000000     0.0000000
 l=   3
     0.0000000     0.0000000     0.0000000     0.0000000     0.0000000     0.0000000     0.0000000
     0.0000000     0.0000000     0.0000000     0.0000000     0.0000000     0.0000000     0.0000000
     0.0000000     0.0000000     0.0000000     0.0000000     0.0000000     0.0000000     0.0000000
     0.0000000     0.0000000     0.0000000     0.0000000     0.0000000     0.0000000     0.0000000
     0.0000000     0.0000000     0.0000000     0.0000000     0.0000000     0.0000000     0.0000000
     0.0000000     0.0000000     0.0000000     0.0000000     0.0000000     0.0000000     0.0000000
     0.0000000     0.0000000     0.0000000     0.0000000     0.0000000     0.0000000     0.0000000

 Ion:   13  E_soc:     -0.0001937
 l=   1
     0.0000000    -0.0000252    -0.0000337
    -0.0000252     0.0000000    -0.0000380
    -0.0000337    -0.0000380     0.0000000
 l=   2
     0.0000000     0.0000000     0.0000000     0.0000000     0.0000000
     0.0000000     0.0000000     0.0000000     0.0000000     0.0000000
     0.0000000     0.0000000     0.0000000     0.0000000     0.0000000
     0.0000000     0.0000000     0.0000000     0.0000000     0.0000000
     0.0000000     0.0000000     0.0000000     0.0000000     0.0000000
 l=   3
     0.0000000     0.0000000     0.0000000     0.0000000     0.0000000     0.0000000     0.0000000
     0.0000000     0.0000000     0.0000000     0.0000000     0.0000000     0.0000000     0.0000000
     0.0000000     0.0000000     0.0000000     0.0000000     0.0000000     0.0000000     0.0000000
     0.0000000     0.0000000     0.0000000     0.0000000     0.0000000     0.0000000     0.0000000
     0.0000000     0.0000000     0.0000000     0.0000000     0.0000000     0.0000000     0.0000000
     0.0000000     0.0000000     0.0000000     0.0000000     0.0000000     0.0000000     0.0000000
     0.0000000     0.0000000     0.0000000     0.0000000     0.0000000     0.0000000     0.0000000

 Ion:   14  E_soc:     -0.0002136
 l=   1
     0.0000000    -0.0000271    -0.0000412
    -0.0000271     0.0000000    -0.0000385
    -0.0000412    -0.0000385     0.0000000
 l=   2
     0.0000000     0.0000000     0.0000000     0.0000000     0.0000000
     0.0000000     0.0000000     0.0000000     0.0000000     0.0000000
     0.0000000     0.0000000     0.0000000     0.0000000     0.0000000
     0.0000000     0.0000000     0.0000000     0.0000000     0.0000000
     0.0000000     0.0000000     0.0000000     0.0000000     0.0000000
 l=   3
     0.0000000     0.0000000     0.0000000     0.0000000     0.0000000     0.0000000     0.0000000
     0.0000000     0.0000000     0.0000000     0.0000000     0.0000000     0.0000000     0.0000000
     0.0000000     0.0000000     0.0000000     0.0000000     0.0000000     0.0000000     0.0000000
     0.0000000     0.0000000     0.0000000     0.0000000     0.0000000     0.0000000     0.0000000
     0.0000000     0.0000000     0.0000000     0.0000000     0.0000000     0.0000000     0.0000000
     0.0000000     0.0000000     0.0000000     0.0000000     0.0000000     0.0000000     0.0000000
     0.0000000     0.0000000     0.0000000     0.0000000     0.0000000     0.0000000     0.0000000

 Ion:   15  E_soc:     -0.0002545
 l=   1
     0.0000000    -0.0000363    -0.0000495
    -0.0000363     0.0000000    -0.0000414
    -0.0000495    -0.0000414     0.0000000
 l=   2
     0.0000000     0.0000000     0.0000000     0.0000000     0.0000000
     0.0000000     0.0000000     0.0000000     0.0000000     0.0000000
     0.0000000     0.0000000     0.0000000     0.0000000     0.0000000
     0.0000000     0.0000000     0.0000000     0.0000000     0.0000000
     0.0000000     0.0000000     0.0000000     0.0000000     0.0000000
 l=   3
     0.0000000     0.0000000     0.0000000     0.0000000     0.0000000     0.0000000     0.0000000
     0.0000000     0.0000000     0.0000000     0.0000000     0.0000000     0.0000000     0.0000000
     0.0000000     0.0000000     0.0000000     0.0000000     0.0000000     0.0000000     0.0000000
     0.0000000     0.0000000     0.0000000     0.0000000     0.0000000     0.0000000     0.0000000
     0.0000000     0.0000000     0.0000000     0.0000000     0.0000000     0.0000000     0.0000000
     0.0000000     0.0000000     0.0000000     0.0000000     0.0000000     0.0000000     0.0000000
     0.0000000     0.0000000     0.0000000     0.0000000     0.0000000     0.0000000     0.0000000

 Ion:   16  E_soc:     -0.0001993
 l=   1
     0.0000000    -0.0000322    -0.0000258
    -0.0000322     0.0000000    -0.0000416
    -0.0000258    -0.0000416     0.0000000
 l=   2
     0.0000000     0.0000000     0.0000000     0.0000000     0.0000000
     0.0000000     0.0000000     0.0000000     0.0000000     0.0000000
     0.0000000     0.0000000     0.0000000     0.0000000     0.0000000
     0.0000000     0.0000000     0.0000000     0.0000000     0.0000000
     0.0000000     0.0000000     0.0000000     0.0000000     0.0000000
 l=   3
     0.0000000     0.0000000     0.0000000     0.0000000     0.0000000     0.0000000     0.0000000
     0.0000000     0.0000000     0.0000000     0.0000000     0.0000000     0.0000000     0.0000000
     0.0000000     0.0000000     0.0000000     0.0000000     0.0000000     0.0000000     0.0000000
     0.0000000     0.0000000     0.0000000     0.0000000     0.0000000     0.0000000     0.0000000
     0.0000000     0.0000000     0.0000000     0.0000000     0.0000000     0.0000000     0.0000000
     0.0000000     0.0000000     0.0000000     0.0000000     0.0000000     0.0000000     0.0000000
     0.0000000     0.0000000     0.0000000     0.0000000     0.0000000     0.0000000     0.0000000

 Ion:   17  E_soc:     -0.0001937
 l=   1
     0.0000000    -0.0000252    -0.0000337
    -0.0000252     0.0000000    -0.0000380
    -0.0000337    -0.0000380     0.0000000
 l=   2
     0.0000000     0.0000000     0.0000000     0.0000000     0.0000000
     0.0000000     0.0000000     0.0000000     0.0000000     0.0000000
     0.0000000     0.0000000     0.0000000     0.0000000     0.0000000
     0.0000000     0.0000000     0.0000000     0.0000000     0.0000000
     0.0000000     0.0000000     0.0000000     0.0000000     0.0000000
 l=   3
     0.0000000     0.0000000     0.0000000     0.0000000     0.0000000     0.0000000     0.0000000
     0.0000000     0.0000000     0.0000000     0.0000000     0.0000000     0.0000000     0.0000000
     0.0000000     0.0000000     0.0000000     0.0000000     0.0000000     0.0000000     0.0000000
     0.0000000     0.0000000     0.0000000     0.0000000     0.0000000     0.0000000     0.0000000
     0.0000000     0.0000000     0.0000000     0.0000000     0.0000000     0.0000000     0.0000000
     0.0000000     0.0000000     0.0000000     0.0000000     0.0000000     0.0000000     0.0000000
     0.0000000     0.0000000     0.0000000     0.0000000     0.0000000     0.0000000     0.0000000

 Ion:   18  E_soc:     -0.0002136
 l=   1
     0.0000000    -0.0000271    -0.0000412
    -0.0000271     0.0000000    -0.0000385
    -0.0000412    -0.0000385     0.0000000
 l=   2
     0.0000000     0.0000000     0.0000000     0.0000000     0.0000000
     0.0000000     0.0000000     0.0000000     0.0000000     0.0000000
     0.0000000     0.0000000     0.0000000     0.0000000     0.0000000
     0.0000000     0.0000000     0.0000000     0.0000000     0.0000000
     0.0000000     0.0000000     0.0000000     0.0000000     0.0000000
 l=   3
     0.0000000     0.0000000     0.0000000     0.0000000     0.0000000     0.0000000     0.0000000
     0.0000000     0.0000000     0.0000000     0.0000000     0.0000000     0.0000000     0.0000000
     0.0000000     0.0000000     0.0000000     0.0000000     0.0000000     0.0000000     0.0000000
     0.0000000     0.0000000     0.0000000     0.0000000     0.0000000     0.0000000     0.0000000
     0.0000000     0.0000000     0.0000000     0.0000000     0.0000000     0.0000000     0.0000000
     0.0000000     0.0000000     0.0000000     0.0000000     0.0000000     0.0000000     0.0000000
     0.0000000     0.0000000     0.0000000     0.0000000     0.0000000     0.0000000     0.0000000

 Ion:   19  E_soc:     -0.0002545
 l=   1
     0.0000000    -0.0000363    -0.0000495
    -0.0000363     0.0000000    -0.0000414
    -0.0000495    -0.0000414     0.0000000
 l=   2
     0.0000000     0.0000000     0.0000000     0.0000000     0.0000000
     0.0000000     0.0000000     0.0000000     0.0000000     0.0000000
     0.0000000     0.0000000     0.0000000     0.0000000     0.0000000
     0.0000000     0.0000000     0.0000000     0.0000000     0.0000000
     0.0000000     0.0000000     0.0000000     0.0000000     0.0000000
 l=   3
     0.0000000     0.0000000     0.0000000     0.0000000     0.0000000     0.0000000     0.0000000
     0.0000000     0.0000000     0.0000000     0.0000000     0.0000000     0.0000000     0.0000000
     0.0000000     0.0000000     0.0000000     0.0000000     0.0000000     0.0000000     0.0000000
     0.0000000     0.0000000     0.0000000     0.0000000     0.0000000     0.0000000     0.0000000
     0.0000000     0.0000000     0.0000000     0.0000000     0.0000000     0.0000000     0.0000000
     0.0000000     0.0000000     0.0000000     0.0000000     0.0000000     0.0000000     0.0000000
     0.0000000     0.0000000     0.0000000     0.0000000     0.0000000     0.0000000     0.0000000

 Ion:   20  E_soc:     -0.0001993
 l=   1
     0.0000000    -0.0000322    -0.0000258
    -0.0000322     0.0000000    -0.0000416
    -0.0000258    -0.0000416     0.0000000
 l=   2
     0.0000000     0.0000000     0.0000000     0.0000000     0.0000000
     0.0000000     0.0000000     0.0000000     0.0000000     0.0000000
     0.0000000     0.0000000     0.0000000     0.0000000     0.0000000
     0.0000000     0.0000000     0.0000000     0.0000000     0.0000000
     0.0000000     0.0000000     0.0000000     0.0000000     0.0000000
 l=   3
     0.0000000     0.0000000     0.0000000     0.0000000     0.0000000     0.0000000     0.0000000
     0.0000000     0.0000000     0.0000000     0.0000000     0.0000000     0.0000000     0.0000000
     0.0000000     0.0000000     0.0000000     0.0000000     0.0000000     0.0000000     0.0000000
     0.0000000     0.0000000     0.0000000     0.0000000     0.0000000     0.0000000     0.0000000
     0.0000000     0.0000000     0.0000000     0.0000000     0.0000000     0.0000000     0.0000000
     0.0000000     0.0000000     0.0000000     0.0000000     0.0000000     0.0000000     0.0000000
     0.0000000     0.0000000     0.0000000     0.0000000     0.0000000     0.0000000     0.0000000
 


 total charge     
 
# of ion     s       p       d       tot
----------------------------------------
  1        2.030   5.876   0.292   8.198
  2        2.030   5.876   0.292   8.198
  3        2.030   5.876   0.292   8.198
  4        2.030   5.876   0.292   8.198
  5        0.357   0.574   4.906   5.837
  6        0.357   0.574   4.906   5.837
  7        0.357   0.574   4.906   5.837
  8        0.356   0.574   4.906   5.837
  9        1.567   3.480   0.000   5.047
 10        1.567   3.479   0.000   5.046
 11        1.567   3.479   0.000   5.046
 12        1.567   3.480   0.000   5.047
 13        1.566   3.477   0.000   5.043
 14        1.566   3.477   0.000   5.042
 15        1.566   3.477   0.000   5.043
 16        1.566   3.477   0.000   5.043
 17        1.566   3.477   0.000   5.043
 18        1.566   3.477   0.000   5.042
 19        1.566   3.477   0.000   5.043
 20        1.566   3.477   0.000   5.043
------------------------------------------------
tot       28.344  67.534  20.792 116.669
 


 magnetization (x)
 
# of ion     s       p       d       tot
----------------------------------------
  1        0.000   0.000   0.001   0.002
  2        0.000   0.000   0.001   0.002
  3        0.000   0.000   0.001   0.002
  4        0.000   0.000   0.001   0.002
  5        0.003   0.001   0.497   0.501
  6        0.011   0.019   2.387   2.417
  7        0.000   0.002   0.025   0.027
  8       -0.007  -0.013  -1.538  -1.559
  9        0.000   0.010   0.000   0.011
 10        0.000   0.006   0.000   0.006
 11        0.000   0.006   0.000   0.006
 12        0.000   0.010   0.000   0.011
 13       -0.000  -0.013   0.000  -0.014
 14       -0.000  -0.015   0.000  -0.016
 15        0.001   0.031   0.000   0.032
 16        0.001   0.029   0.000   0.030
 17       -0.000  -0.013   0.000  -0.014
 18       -0.000  -0.015   0.000  -0.016
 19        0.001   0.031   0.000   0.032
 20        0.001   0.029   0.000   0.030
------------------------------------------------
tot        0.011   0.105   1.374   1.491
 


 magnetization (y)
 
# of ion     s       p       d       tot
----------------------------------------
  1       -0.000  -0.000  -0.001  -0.001
  2       -0.000  -0.000  -0.001  -0.001
  3       -0.000  -0.000  -0.001  -0.001
  4       -0.000  -0.000  -0.001  -0.001
  5        0.003   0.005   0.744   0.753
  6        0.002   0.004   0.464   0.471
  7       -0.001   0.001  -0.137  -0.137
  8       -0.009  -0.015  -1.953  -1.977
  9       -0.000  -0.017   0.000  -0.017
 10        0.000   0.006   0.000   0.006
 11        0.000   0.006   0.000   0.006
 12       -0.000  -0.017   0.000  -0.017
 13       -0.001  -0.021   0.000  -0.022
 14       -0.001  -0.023   0.000  -0.024
 15        0.000   0.011   0.000   0.011
 16        0.000   0.011   0.000   0.012
 17       -0.001  -0.021   0.000  -0.022
 18       -0.001  -0.023   0.000  -0.024
 19        0.000   0.011   0.000   0.011
 20        0.000   0.011   0.000   0.012
------------------------------------------------
tot       -0.007  -0.072  -0.885  -0.963
 


 magnetization (z)
 
# of ion     s       p       d       tot
----------------------------------------
  1        0.000   0.000   0.001   0.001
  2        0.000   0.000   0.001   0.001
  3        0.000   0.000   0.001   0.001
  4        0.000   0.000   0.001   0.001
  5        0.011   0.019   2.367   2.397
  6        0.003   0.003   0.714   0.720
  7       -0.012  -0.021  -2.498  -2.531
  8        0.002   0.005   0.324   0.331
  9        0.000   0.012   0.000   0.013
 10        0.000  -0.001   0.000  -0.001
 11        0.000  -0.001   0.000  -0.001
 12        0.000   0.012   0.000   0.013
 13       -0.001  -0.023   0.000  -0.024
 14       -0.001  -0.020   0.000  -0.020
 15        0.001   0.031   0.000   0.032
 16        0.001   0.033   0.000   0.034
 17       -0.001  -0.023   0.000  -0.024
 18       -0.001  -0.020   0.000  -0.020
 19        0.001   0.031   0.000   0.032
 20        0.001   0.033   0.000   0.034
------------------------------------------------
tot        0.007   0.070   0.910   0.987
 
 BZINTS: Fermi energy:  4.111870;140.000000 electrons
         Band energy:-859.023316;  BLOECHL correction:  0.000000
 BZINTS: Fermi energy:  4.111870;140.000000 electrons
         Band energy:-859.023316;  BLOECHL correction:  0.000000
 BZINTS: Fermi energy:  4.111870;140.000000 electrons
         Band energy:-859.023316;  BLOECHL correction:  0.000000
 BZINTS: Fermi energy:  4.111870;140.000000 electrons
         Band energy:-859.023316;  BLOECHL correction:  0.000000

 total amount of memory used by VASP on root node   406240. kBytes
========================================================================

   base      :      30000. kBytes
   nonl-proj :      36859. kBytes
   fftplans  :      51722. kBytes
   grid      :      49766. kBytes
   one-center:        622. kBytes
   wavefun   :     237271. kBytes
 
  
  
 General timing and accounting informations for this job:
 ========================================================
  
                  Total CPU time used (sec):     7238.169
                            User time (sec):     7220.002
                          System time (sec):       18.167
                         Elapsed time (sec):     7285.048
  
                   Maximum memory used (kb):      939172.
                   Average memory used (kb):           0.
  
                          Minor page faults:      1791977
                          Major page faults:            4
                 Voluntary context switches:        15596
