    4    4    1    2
  0.2166857E+02  0.4061635E-09  0.4061635E-09  0.5253981E-09  0.5000000E-15
  1.000000000000000E-004
  CAR 
 LiAu                                    
   20  120   16
 
  0.0000000E+00  0.0000000E+00  0.0000000E+00  0.1443001E-02
   1       -8.725338     -8.725338
   2       -5.547569     -5.547571
   3       -4.639679     -4.639680
   4        0.001639      0.001637
   5        0.053256      0.053256
   6        0.956546      0.956552
   7        0.956546      0.956552
   8        1.540241      1.540235
   9        3.943388      3.943389
  10        3.943388      3.943389
  11        5.867066      5.867066
  12        5.867066      5.867066
  13        7.691405      7.691398
  14        9.466402      9.466395
  15        9.466402      9.466395
  16       10.616523     10.616533
 
  0.1111111E+00  0.0000000E+00  0.0000000E+00  0.2886003E-02
   1       -8.646062     -8.646062
   2       -5.649188     -5.649190
   3       -4.551139     -4.551140
   4       -0.275330     -0.275332
   5       -0.207021     -0.207019
   6        1.049126      1.049132
   7        1.297807      1.297810
   8        1.406609      1.406603
   9        4.036402      4.036403
  10        4.147672      4.147672
  11        5.593201      5.593202
  12        5.732538      5.732538
  13        8.061721      8.061714
  14        9.046938      9.046932
  15        9.205991      9.205984
  16       10.683098     10.683673
 
  0.2222222E+00  0.0000000E+00  0.0000000E+00  0.2886003E-02
   1       -8.412237     -8.412236
   2       -5.951829     -5.951831
   3       -4.287716     -4.287717
   4       -0.943064     -0.943065
   5       -0.501274     -0.501272
   6        1.045120      1.045115
   7        1.325219      1.325224
   8        1.890063      1.890064
   9        4.314397      4.314398
  10        4.642770      4.642769
  11        4.898357      4.898359
  12        5.340705      5.340702
  13        8.135924      8.135920
  14        8.548293      8.548286
  15        9.090148      9.090142
  16       10.008955     10.008963
 
  0.3333333E+00  0.0000000E+00  0.0000000E+00  0.2886003E-02
   1       -8.037105     -8.037104
   2       -6.423490     -6.423491
   3       -3.856484     -3.856486
   4       -1.753554     -1.753556
   5       -0.551959     -0.551957
   6        0.555361      0.555359
   7        1.779283      1.779288
   8        2.542623      2.542621
   9        4.028565      4.028567
  10        4.732347      4.732343
  11        4.773967      4.773967
  12        5.284564      5.284560
  13        7.133702      7.133700
  14        7.710433      7.710426
  15        9.769640      9.769648
  16       10.438434     10.438431
 
  0.4444444E+00  0.0000000E+00  0.0000000E+00  0.2886003E-02
   1       -7.546565     -7.546565
   2       -6.985329     -6.985330
   3       -3.271147     -3.271148
   4       -2.555941     -2.555942
   5       -0.344087     -0.344086
   6        0.055980      0.055979
   7        2.399896      2.399901
   8        3.164660      3.164664
   9        3.250897      3.250894
  10        4.000976      4.000972
  11        5.408206      5.408206
  12        6.023754      6.023749
  13        6.203811      6.203810
  14        6.843310      6.843304
  15        9.963389      9.963396
  16       10.454270     10.454275
 
  0.0000000E+00  0.9090909E-01  0.0000000E+00  0.2886003E-02
   1       -8.672208     -8.672208
   2       -5.615556     -5.615558
   3       -4.580368     -4.580369
   4       -0.187777     -0.187779
   5       -0.140411     -0.140410
   6        1.018549      1.018555
   7        1.203189      1.203193
   8        1.450023      1.450017
   9        4.005678      4.005679
  10        4.083245      4.083245
  11        5.681034      5.681034
  12        5.776759      5.776758
  13        7.940872      7.940866
  14        9.175918      9.175912
  15        9.289268      9.289261
  16       10.659170     10.658563
 
  0.1111111E+00  0.9090909E-01  0.0000000E+00  0.5772006E-02
   1       -8.593801     -8.593801
   2       -5.707599     -5.707600
   3       -4.492550     -4.492551
   4       -0.413979     -0.413981
   5       -0.231844     -0.231843
   6        0.703610      0.703615
   7        1.326689      1.326683
   8        1.789024      1.789028
   9        3.727669      3.727669
  10        4.620384      4.620384
  11        5.176249      5.176248
  12        5.864687      5.864688
  13        8.293223      8.293217
  14        8.393037      8.393032
  15        9.540948      9.540940
  16       10.603375     10.602833
 
  0.2222222E+00  0.9090909E-01  0.0000000E+00  0.5772006E-02
   1       -8.362865     -8.362865
   2       -5.985641     -5.985642
   3       -4.231475     -4.231476
   4       -0.999640     -0.999641
   5       -0.447430     -0.447428
   6        0.782599      0.782603
   7        0.987953      0.987949
   8        2.503589      2.503590
   9        3.750540      3.750539
  10        4.336165      4.336165
  11        5.315540      5.315539
  12        5.668034      5.668034
  13        7.355549      7.355545
  14        9.206904      9.206898
  15        9.283939      9.283933
  16       10.145960     10.145967
 
  0.3333333E+00  0.9090909E-01  0.0000000E+00  0.5772006E-02
   1       -7.993327     -7.993327
   2       -6.428513     -6.428514
   3       -3.804916     -3.804917
   4       -1.755627     -1.755629
   5       -0.514571     -0.514569
   6        0.521242      0.521240
   7        1.176879      1.176882
   8        3.216977      3.216977
   9        3.410301      3.410301
  10        4.074983      4.074981
  11        5.240556      5.240555
  12        6.061139      6.061137
  13        6.326042      6.326039
  14        8.500843      8.500838
  15        9.680278      9.680286
  16       10.487852     10.487851
 
  0.4444444E+00  0.9090909E-01  0.0000000E+00  0.5772006E-02
   1       -7.512437     -7.512437
   2       -6.966917     -6.966917
   3       -3.228107     -3.228108
   4       -2.528554     -2.528556
   5       -0.334361     -0.334360
   6        0.042695      0.042694
   7        1.774878      1.774881
   8        2.533202      2.533204
   9        3.933687      3.933686
  10        4.633039      4.633038
  11        4.640913      4.640911
  12        5.403946      5.403944
  13        6.848493      6.848490
  14        7.674879      7.674875
  15        9.698554      9.698562
  16       10.125069     10.125076
 
  0.0000000E+00  0.1818182E+00  0.0000000E+00  0.2886003E-02
   1       -8.514539     -8.514538
   2       -5.819439     -5.819441
   3       -4.403412     -4.403413
   4       -0.672526     -0.672527
   5       -0.416914     -0.416912
   6        1.197507      1.197502
   7        1.203839      1.203844
   8        1.665819      1.665821
   9        4.192057      4.192058
  10        4.440573      4.440572
  11        5.183983      5.183984
  12        5.511381      5.511379
  13        8.492340      8.492336
  14        8.651934      8.651928
  15        8.819012      8.819005
  16       10.210768     10.210775
 
  0.1111111E+00  0.1818182E+00  0.0000000E+00  0.5772006E-02
   1       -8.438961     -8.438961
   2       -5.885415     -5.885417
   3       -4.317876     -4.317877
   4       -0.799003     -0.799005
   5       -0.352609     -0.352607
   6        0.581384      0.581389
   7        1.099185      1.099181
   8        2.410999      2.411002
   9        3.599899      3.599899
  10        4.496979      4.496978
  11        5.222386      5.222385
  12        5.810544      5.810545
  13        7.533039      7.533035
  14        8.962432      8.962426
  15        9.501844      9.501837
  16       10.479562     10.479569
 
  0.2222222E+00  0.1818182E+00  0.0000000E+00  0.5772006E-02
   1       -8.217171     -8.217171
   2       -6.094469     -6.094471
   3       -4.064311     -4.064313
   4       -1.184068     -1.184069
   5       -0.293594     -0.293592
   6        0.187514      0.187518
   7        0.815978      0.815974
   8        3.254905      3.254904
   9        3.318090      3.318092
  10        3.535248      3.535247
  11        5.842441      5.842444
  12        6.152520      6.152519
  13        6.393530      6.393526
  14        9.747420      9.747413
  15        9.862723      9.862718
  16       10.471491     10.471495
 
  0.3333333E+00  0.1818182E+00  0.0000000E+00  0.5772006E-02
   1       -7.865357     -7.865357
   2       -6.452655     -6.452656
   3       -3.652788     -3.652789
   4       -1.777741     -1.777742
   5       -0.422958     -0.422956
   6        0.403770      0.403768
   7        0.473956      0.473959
   8        2.595277      2.595277
   9        3.323250      3.323248
  10        4.136201      4.136202
  11        5.337525      5.337522
  12        5.678781      5.678783
  13        7.052541      7.052538
  14        9.397153      9.397147
  15        9.812340      9.812346
  16       10.222988     10.222995
 
  0.4444444E+00  0.1818182E+00  0.0000000E+00  0.5772006E-02
   1       -7.415065     -7.415065
   2       -6.919025     -6.919025
   3       -3.103749     -3.103751
   4       -2.455503     -2.455504
   5       -0.338845     -0.338844
   6       -0.025594     -0.025594
   7        1.032788      1.032790
   8        1.750148      1.750149
   9        3.744680      3.744677
  10        4.436750      4.436747
  11        4.831418      4.831418
  12        5.356669      5.356669
  13        7.910810      7.910807
  14        8.717399      8.717395
  15        9.466507      9.466515
  16        9.631427      9.631436
 
  0.0000000E+00  0.2727273E+00  0.0000000E+00  0.2886003E-02
   1       -8.258028     -8.258028
   2       -6.149157     -6.149158
   3       -4.111866     -4.111867
   4       -1.305090     -1.305092
   5       -0.558404     -0.558402
   6        0.831254      0.831251
   7        1.510062      1.510068
   8        2.180128      2.180128
   9        4.501095      4.501095
  10        4.511367      4.511369
  11        4.920860      4.920857
  12        5.086574      5.086570
  13        7.678107      7.678105
  14        8.178656      8.178650
  15        9.710196      9.710191
  16        9.841973      9.841981
 
  0.1111111E+00  0.2727273E+00  0.0000000E+00  0.5772006E-02
   1       -8.187658     -8.187657
   2       -6.180370     -6.180371
   3       -4.030611     -4.030613
   4       -1.347976     -1.347978
   5       -0.483093     -0.483090
   6        0.761538      0.761535
   7        0.771310      0.771313
   8        3.023230      3.023231
   9        3.707672      3.707671
  10        3.734103      3.734103
  11        5.591130      5.591131
  12        5.852703      5.852702
  13        6.658812      6.658808
  14        9.098322      9.098316
  15        9.916444      9.916452
  16        9.966293      9.966288
 
  0.2222222E+00  0.2727273E+00  0.0000000E+00  0.5772006E-02
   1       -7.982791     -7.982791
   2       -6.292344     -6.292345
   3       -3.791233     -3.791234
   4       -1.514066     -1.514067
   5       -0.273872     -0.273870
   6        0.033150      0.033152
   7        0.539587      0.539585
   8        2.753733      2.753733
   9        3.036357      3.036355
  10        4.071689      4.071689
  11        5.480034      5.480031
  12        5.820017      5.820021
  13        6.967178      6.967177
  14        9.866929      9.866922
  15       10.325024     10.325028
  16       10.411493     10.411500
 
  0.3333333E+00  0.2727273E+00  0.0000000E+00  0.5772006E-02
   1       -7.663886     -7.663886
   2       -6.519514     -6.519515
   3       -3.408551     -3.408552
   4       -1.862741     -1.862742
   5       -0.425883     -0.425881
   6        0.129014      0.129015
   7        0.174671      0.174671
   8        1.907692      1.907691
   9        2.796503      2.796501
  10        4.432007      4.432004
  11        4.930291      4.930291
  12        5.785766      5.785771
  13        8.001909      8.001906
  14        9.718935      9.718945
  15       10.027144     10.027137
  16       10.239704     10.239706
 
  0.4444444E+00  0.2727273E+00  0.0000000E+00  0.5772006E-02
   1       -7.270079     -7.270079
   2       -6.863353     -6.863353
   3       -2.913694     -2.913695
   4       -2.365650     -2.365651
   5       -0.471336     -0.471334
   6       -0.221878     -0.221878
   7        0.611932      0.611932
   8        1.204876      1.204875
   9        3.008134      3.008132
  10        3.584398      3.584395
  11        5.472667      5.472668
  12        5.699660      5.699664
  13        8.906854      8.906850
  14        9.446654      9.446662
  15        9.629293      9.629288
  16        9.702944      9.702950
 
  0.0000000E+00  0.3636364E+00  0.0000000E+00  0.2886003E-02
   1       -7.913282     -7.913282
   2       -6.571759     -6.571760
   3       -3.711346     -3.711347
   4       -1.977451     -1.977452
   5       -0.518898     -0.518897
   6        0.415250      0.415249
   7        1.932714      1.932719
   8        2.730196      2.730194
   9        3.787187      3.787190
  10        4.540228      4.540224
  11        4.930026      4.930026
  12        5.477257      5.477253
  13        6.869310      6.869309
  14        7.472537      7.472531
  15        9.783458      9.783466
  16       10.647471     10.647470
 
  0.1111111E+00  0.3636364E+00  0.0000000E+00  0.5772006E-02
   1       -7.851326     -7.851326
   2       -6.569135     -6.569136
   3       -3.637257     -3.637258
   4       -1.966499     -1.966500
   5       -0.475915     -0.475913
   6        0.371677      0.371675
   7        1.148091      1.148094
   8        2.975999      2.976000
   9        3.620825      3.620826
  10        4.017319      4.017317
  11        5.233793      5.233792
  12        5.837692      5.837689
  13        6.497335      6.497332
  14        8.501820      8.501815
  15        9.609772      9.609781
  16       10.428062     10.428067
 
  0.2222222E+00  0.3636364E+00  0.0000000E+00  0.5772006E-02
   1       -7.673951     -7.673951
   2       -6.580541     -6.580542
   3       -3.421871     -3.421873
   4       -1.964674     -1.964675
   5       -0.419502     -0.419500
   6        0.200892      0.200891
   7        0.385468      0.385469
   8        2.039890      2.039890
   9        3.111555      3.111553
  10        4.661453      4.661450
  11        4.713357      4.713358
  12        5.717879      5.717882
  13        7.733101      7.733098
  14        9.595941      9.595936
  15        9.807440      9.807449
  16        9.828020      9.828026
 
  0.3333333E+00  0.3636364E+00  0.0000000E+00  0.5772006E-02
   1       -7.408380     -7.408380
   2       -6.654403     -6.654404
   3       -3.088918     -3.088919
   4       -2.055278     -2.055279
   5       -0.605646     -0.605643
   6       -0.146926     -0.146925
   7        0.276200      0.276200
   8        1.379387      1.379386
   9        2.572587      2.572585
  10        3.656205      3.656202
  11        5.459798      5.459800
  12        5.756102      5.756108
  13        8.850979      8.850975
  14        9.480059      9.480067
  15       10.246914     10.246907
  16       10.368062     10.368062
 
  0.4444444E+00  0.3636364E+00  0.0000000E+00  0.5772006E-02
   1       -7.104679     -7.104679
   2       -6.832670     -6.832670
   3       -2.688421     -2.688422
   4       -2.308443     -2.308443
   5       -0.724579     -0.724576
   6       -0.535247     -0.535245
   7        0.557402      0.557401
   8        0.929942      0.929940
   9        2.510402      2.510399
  10        2.906116      2.906113
  11        5.712304      5.712308
  12        5.724663      5.724669
  13        9.720658      9.720663
  14        9.738094      9.738090
  15       10.244205     10.244206
  16       10.264807     10.264801
 
  0.0000000E+00  0.4545455E+00  0.0000000E+00  0.2886003E-02
   1       -7.497610     -7.497610
   2       -7.037621     -7.037622
   3       -3.211017     -3.211018
   4       -2.625390     -2.625391
   5       -0.314381     -0.314380
   6        0.013999      0.013999
   7        2.463926      2.463930
   8        3.090122      3.090125
   9        3.317884      3.317881
  10        3.932265      3.932262
  11        5.474138      5.474138
  12        6.095227      6.095222
  13        6.125375      6.125374
  14        6.766115      6.766109
  15        9.998701      9.998707
  16       10.404540     10.404545
 
  0.1111111E+00  0.4545455E+00  0.0000000E+00  0.5772006E-02
   1       -7.448651     -7.448651
   2       -7.007962     -7.007963
   3       -3.148614     -3.148615
   4       -2.582223     -2.582224
   5       -0.305177     -0.305176
   6       -0.004739     -0.004739
   7        1.656981      1.656983
   8        2.273525      2.273527
   9        4.205004      4.205004
  10        4.492942      4.492940
  11        4.757032      4.757031
  12        5.107307      5.107305
  13        7.158944      7.158941
  14        7.834881      7.834877
  15        9.638577      9.638586
  16        9.957593      9.957600
 
  0.2222222E+00  0.4545455E+00  0.0000000E+00  0.5772006E-02
   1       -7.313504     -7.313505
   2       -6.934865     -6.934865
   3       -2.972908     -2.972910
   4       -2.472209     -2.472210
   5       -0.357781     -0.357780
   6       -0.126265     -0.126265
   7        0.850348      0.850349
   8        1.404270      1.404270
   9        3.440083      3.440081
  10        3.970511      3.970509
  11        5.209631      5.209631
  12        5.536042      5.536044
  13        8.443575      8.443571
  14        9.082623      9.082618
  15        9.473553      9.473562
  16        9.485968      9.485976
 
  0.3333333E+00  0.4545455E+00  0.0000000E+00  0.5772006E-02
   1       -7.128872     -7.128872
   2       -6.864548     -6.864549
   3       -2.723151     -2.723152
   4       -2.358125     -2.358126
   5       -0.633979     -0.633976
   6       -0.456916     -0.456914
   7        0.586164      0.586164
   8        0.955431      0.955429
   9        2.671074      2.671072
  10        3.052127      3.052124
  11        5.685589      5.685592
  12        5.732783      5.732789
  13        9.554899      9.554894
  14        9.617243      9.617249
  15       10.013154     10.013157
  16       10.053691     10.053686
 
  0.4444444E+00  0.4545455E+00  0.0000000E+00  0.5772006E-02
   1       -6.955630     -6.955631
   2       -6.859238     -6.859239
   3       -2.477007     -2.477007
   4       -2.338705     -2.338706
   5       -0.868721     -0.868718
   6       -0.796066     -0.796064
   7        0.654595      0.654593
   8        0.780834      0.780832
   9        2.319870      2.319867
  10        2.463204      2.463201
  11        5.688168      5.688175
  12        5.707997      5.708004
  13       10.225406     10.225407
  14       10.303451     10.303445
  15       10.500659     10.500653
  16       10.518802     10.518801
 
  0.0000000E+00  0.0000000E+00  0.1428571E+00  0.2886003E-02
   1       -8.634986     -8.634986
   2       -5.958502     -5.958503
   3       -4.326017     -4.326019
   4       -0.643562     -0.643565
   5        0.413625      0.413625
   6        1.043299      1.043305
   7        1.043299      1.043305
   8        2.270005      2.269999
   9        3.602889      3.602891
  10        3.602889      3.602891
  11        6.182416      6.182415
  12        6.182416      6.182415
  13        7.794357      7.794350
  14        9.260001      9.259994
  15        9.260001      9.259994
  16        9.564312      9.564319
 
  0.1111111E+00  0.0000000E+00  0.1428571E+00  0.5772006E-02
   1       -8.556430     -8.556429
   2       -5.980996     -5.980997
   3       -4.336096     -4.336098
   4       -0.881923     -0.881926
   5        0.135532      0.135533
   6        1.135466      1.135472
   7        1.420904      1.420907
   8        2.095085      2.095079
   9        3.684361      3.684362
  10        3.791801      3.791802
  11        5.897736      5.897735
  12        6.047894      6.047891
  13        8.159702      8.159696
  14        8.837748      8.837742
  15        8.981422      8.981415
  16        9.564649      9.564656
 
  0.2222222E+00  0.0000000E+00  0.1428571E+00  0.5772006E-02
   1       -8.325119     -8.325119
   2       -6.112763     -6.112764
   3       -4.294175     -4.294176
   4       -1.478418     -1.478420
   5       -0.117876     -0.117874
   6        1.410090      1.410095
   7        1.675442      1.675438
   8        2.019220      2.019220
   9        3.898499      3.898501
  10        4.202391      4.202390
  11        5.228743      5.228743
  12        5.686067      5.686063
  13        7.923578      7.923576
  14        8.256886      8.256880
  15        9.217023      9.217017
  16        9.517326      9.517332
 
  0.3333333E+00  0.0000000E+00  0.1428571E+00  0.5772006E-02
   1       -7.955642     -7.955642
   2       -6.448886     -6.448887
   3       -4.060466     -4.060467
   4       -2.223482     -2.223483
   5       -0.107706     -0.107704
   6        1.141748      1.141745
   7        1.860656      1.860661
   8        2.663971      2.663970
   9        3.894457      3.894460
  10        4.492252      4.492250
  11        4.796751      4.796751
  12        5.369281      5.369277
  13        6.922243      6.922242
  14        7.398323      7.398317
  15        9.519921      9.519926
  16       10.561192     10.561189
 
  0.4444444E+00  0.0000000E+00  0.1428571E+00  0.5772006E-02
   1       -7.477396     -7.477396
   2       -6.944347     -6.944347
   3       -3.598972     -3.598972
   4       -2.962725     -2.962726
   5        0.156008      0.156009
   6        0.602009      0.602008
   7        2.472388      2.472392
   8        3.207769      3.207773
   9        3.353486      3.353483
  10        4.050761      4.050757
  11        5.240705      5.240705
  12        5.780549      5.780545
  13        6.001700      6.001700
  14        6.536352      6.536347
  15        9.753732      9.753737
  16       10.200979     10.200983
 
  0.0000000E+00  0.9090909E-01  0.1428571E+00  0.5772006E-02
   1       -8.582319     -8.582318
   2       -5.972211     -5.972212
   3       -4.334181     -4.334184
   4       -0.805831     -0.805834
   5        0.200838      0.200839
   6        1.105030      1.105035
   7        1.321622      1.321625
   8        2.149796      2.149790
   9        3.657779      3.657780
  10        3.733689      3.733690
  11        5.988006      5.988005
  12        6.091623      6.091621
  13        8.041174      8.041167
  14        8.967473      8.967467
  15        9.069262      9.069255
  16        9.566135      9.566142
 
  0.1111111E+00  0.9090909E-01  0.1428571E+00  0.1154401E-01
   1       -8.504667     -8.504667
   2       -5.997128     -5.997129
   3       -4.330037     -4.330039
   4       -1.004823     -1.004826
   5        0.130553      0.130555
   6        0.792629      0.792633
   7        1.898360      1.898363
   8        2.003756      2.003751
   9        3.387537      3.387538
  10        4.186907      4.186908
  11        5.529384      5.529382
  12        6.185731      6.185730
  13        8.158895      8.158890
  14        8.390509      8.390503
  15        9.338256      9.338249
  16        9.577134      9.577140
 
  0.2222222E+00  0.9090909E-01  0.1428571E+00  0.1154401E-01
   1       -8.276283     -8.276283
   2       -6.128426     -6.128428
   3       -4.260372     -4.260373
   4       -1.531198     -1.531200
   5       -0.065404     -0.065402
   6        0.896714      0.896718
   7        1.614889      1.614885
   8        2.605412      2.605413
   9        3.397637      3.397638
  10        4.251560      4.251560
  11        5.273431      5.273430
  12        5.988758      5.988757
  13        7.112126      7.112123
  14        8.943460      8.943454
  15        9.422795      9.422789
  16        9.594909      9.594915
 
  0.3333333E+00  0.9090909E-01  0.1428571E+00  0.1154401E-01
   1       -7.912449     -7.912449
   2       -6.450126     -6.450127
   3       -4.012855     -4.012856
   4       -2.224735     -2.224736
   5       -0.087967     -0.087966
   6        1.098437      1.098434
   7        1.301424      1.301427
   8        3.301421      3.301421
   9        3.444951      3.444952
  10        3.731476      3.731475
  11        5.489701      5.489700
  12        5.889476      5.889474
  13        6.093186      6.093183
  14        8.227823      8.227819
  15        9.556538      9.556544
  16       10.560739     10.557079
 
  0.4444444E+00  0.9090909E-01  0.1428571E+00  0.1154401E-01
   1       -7.443850     -7.443850
   2       -6.925927     -6.925928
   3       -3.555041     -3.555042
   4       -2.934304     -2.934305
   5        0.145343      0.145344
   6        0.572434      0.572433
   7        1.894135      1.894137
   8        2.633700      2.633701
   9        3.951592      3.951592
  10        4.126587      4.126586
  11        5.021006      5.021004
  12        5.241751      5.241749
  13        6.589245      6.589242
  14        7.394471      7.394468
  15        9.684767      9.684772
  16       10.081539     10.081544
 
  0.0000000E+00  0.1818182E+00  0.1428571E+00  0.5772006E-02
   1       -8.426248     -8.426248
   2       -6.044340     -6.044341
   3       -4.325017     -4.325018
   4       -1.233894     -1.233896
   5       -0.052884     -0.052882
   6        1.289405      1.289411
   7        1.795245      1.795246
   8        1.847132      1.847127
   9        3.811816      3.811818
  10        4.042713      4.042713
  11        5.491769      5.491769
  12        5.837057      5.837054
  13        8.280823      8.280819
  14        8.513445      8.513438
  15        8.804915      8.804909
  16        9.541048      9.541054
 
  0.1111111E+00  0.1818182E+00  0.1428571E+00  0.1154401E-01
   1       -8.351441     -8.351441
   2       -6.071215     -6.071216
   3       -4.288259     -4.288261
   4       -1.349952     -1.349954
   5        0.025574      0.025576
   6        0.686249      0.686253
   7        1.742683      1.742678
   8        2.512572      2.512575
   9        3.257232      3.257232
  10        4.331619      4.331619
  11        5.274573      5.274572
  12        6.135888      6.135888
  13        7.290039      7.290035
  14        9.026112      9.026106
  15        9.325211      9.325205
  16        9.616828      9.616834
 
  0.2222222E+00  0.1818182E+00  0.1428571E+00  0.1154401E-01
   1       -8.132338     -8.132338
   2       -6.190051     -6.190052
   3       -4.154246     -4.154248
   4       -1.701256     -1.701257
   5        0.085543      0.085545
   6        0.326235      0.326238
   7        1.423579      1.423576
   8        2.913967      2.913967
   9        3.395348      3.395349
  10        3.601252      3.601252
  11        5.963703      5.963703
  12        6.161289      6.161287
  13        6.190113      6.190113
  14        9.502135      9.502128
  15        9.768392      9.768398
  16        9.997990      9.997985
 
  0.3333333E+00  0.1818182E+00  0.1428571E+00  0.1154401E-01
   1       -7.786375     -7.786375
   2       -6.463174     -6.463174
   3       -3.873269     -3.873270
   4       -2.242550     -2.242551
   5       -0.091093     -0.091091
   6        0.703956      0.703958
   7        0.941899      0.941897
   8        2.726232      2.726232
   9        2.976562      2.976561
  10        4.111019      4.111020
  11        5.211710      5.211708
  12        6.001677      6.001677
  13        6.820344      6.820343
  14        9.138088      9.138083
  15        9.759331      9.759337
  16       10.297606     10.297610
 
  0.4444444E+00  0.1818182E+00  0.1428571E+00  0.1154401E-01
   1       -7.348255     -7.348255
   2       -6.877857     -6.877857
   3       -3.428103     -3.428104
   4       -2.857382     -2.857383
   5        0.047316      0.047317
   6        0.433987      0.433987
   7        1.253183      1.253184
   8        1.934372      1.934373
   9        3.371907      3.371906
  10        3.977423      3.977422
  11        5.164359      5.164357
  12        5.651306      5.651305
  13        7.647250      7.647248
  14        8.440373      8.440370
  15        9.605933      9.605939
  16        9.801967      9.801974
 
  0.0000000E+00  0.2727273E+00  0.1428571E+00  0.5772006E-02
   1       -8.172972     -8.172971
   2       -6.239121     -6.239122
   3       -4.217315     -4.217316
   4       -1.809648     -1.809650
   5       -0.147718     -0.147716
   6        1.440385      1.440381
   7        1.593701      1.593706
   8        2.306832      2.306831
   9        3.982462      3.982464
  10        4.389310      4.389309
  11        4.930874      4.930875
  12        5.494003      5.493999
  13        7.465492      7.465490
  14        7.876741      7.876735
  15        9.496988      9.496994
  16        9.842572      9.842567
 
  0.1111111E+00  0.2727273E+00  0.1428571E+00  0.1154401E-01
   1       -8.103433     -8.103433
   2       -6.255872     -6.255873
   3       -4.153602     -4.153603
   4       -1.849820     -1.849822
   5       -0.090109     -0.090107
   6        0.903461      0.903465
   7        1.362086      1.362083
   8        3.112546      3.112547
   9        3.345951      3.345952
  10        3.787318      3.787318
  11        5.639916      5.639916
  12        5.934450      5.934449
  13        6.419192      6.419189
  14        8.840114      8.840108
  15        9.618630      9.618636
  16       10.102519     10.102514
 
  0.2222222E+00  0.2727273E+00  0.1428571E+00  0.1154401E-01
   1       -7.901404     -7.901403
   2       -6.330313     -6.330314
   3       -3.963659     -3.963660
   4       -2.001831     -2.001832
   5       -0.055770     -0.055767
   6        0.359102      0.359103
   7        1.094950      1.094948
   8        2.694512      2.694511
   9        2.883576      2.883575
  10        4.071125      4.071125
  11        5.327768      5.327766
  12        6.179491      6.179493
  13        6.741716      6.741715