       N       E                     dE             d eps       ncg     rms          rms(c)
DAV:   1     0.682910127311E+02    0.68291E+02   -0.82767E+03  7680   0.110E+03
DAV:   2    -0.134687092559E+02   -0.81760E+02   -0.77905E+02  9732   0.172E+02
DAV:   3    -0.187814126811E+02   -0.53127E+01   -0.52034E+01  9564   0.418E+01
DAV:   4    -0.188739963347E+02   -0.92584E-01   -0.92299E-01  9284   0.658E+00
DAV:   5    -0.188758237322E+02   -0.18274E-02   -0.18268E-02  9576   0.896E-01    0.859E+00
DAV:   6    -0.196200452998E+02   -0.74422E+00   -0.42401E-01  8480   0.398E+00    0.411E+00
DAV:   7    -0.196701448534E+02   -0.50100E-01   -0.27092E-01  8240   0.278E+00    0.192E+00
DAV:   8    -0.196709722281E+02   -0.82737E-03   -0.33276E-02  9008   0.118E+00    0.804E-01
DAV:   9    -0.196716916470E+02   -0.71942E-03   -0.44895E-03  8624   0.413E-01    0.260E-01
DAV:  10    -0.196718904443E+02   -0.19880E-03   -0.10749E-03  9036   0.212E-01    0.119E-01
DAV:  11    -0.196719560371E+02   -0.65593E-04   -0.25658E-04  8800   0.105E-01    0.521E-02
DAV:  12    -0.196719656765E+02   -0.96394E-05   -0.25899E-05  8848   0.351E-02    0.171E-02
DAV:  13    -0.196719715460E+02   -0.58694E-05   -0.82384E-06  8472   0.209E-02    0.794E-03
DAV:  14    -0.196719735793E+02   -0.20334E-05   -0.18167E-06  8732   0.889E-03    0.317E-03
DAV:  15    -0.196719740082E+02   -0.42889E-06   -0.62349E-07  7552   0.502E-03    0.134E-03
DAV:  16    -0.196719740342E+02   -0.25948E-07   -0.10817E-07  5200   0.248E-03
   1 F= -.19671974E+02 E0= -.19671926E+02  d E =-.951541E-04  mag=    -0.0000
