 vasp.5.3.3 18Dez12 (build Oct 13 2015 19:46:31) complex                        
  
 executed on             LinuxIFC date 2015.12.07  11:45:57
 running on   16 total cores
 distrk:  each k-point on   16 cores,    1 groups
 distr:  one band on NCORES_PER_BAND=   4 cores,    4 groups


--------------------------------------------------------------------------------------------------------


 INCAR:
 POTCAR:    PAW_PBE P 06Sep2000                   
 POTCAR:    PAW_PBE P 06Sep2000                   
   VRHFIN =P : s2p3                                                             
   LEXCH  = PE                                                                  
   EATOM  =   176.0430 eV,   12.9388 Ry                                         
                                                                                
   TITEL  = PAW_PBE P 06Sep2000                                                 
   LULTRA =        F    use ultrasoft PP ?                                      
   IUNSCR =        1    unscreen: 0-lin 1-nonlin 2-no                           
   RPACOR =    1.500    partial core radius                                     
   POMASS =   30.974; ZVAL   =    5.000    mass and valenz                      
   RCORE  =    1.900    outmost cutoff radius                                   
   RWIGS  =    2.330; RWIGS  =    1.233    wigner-seitz radius (au A)           
   ENMAX  =  255.040; ENMIN  =  191.280 eV                                      
   ICORE  =        2    local potential                                         
   LCOR   =        T    correct aug charges                                     
   LPAW   =        T    paw PP                                                  
   EAUG   =  342.924                                                            
   DEXC   =    0.000                                                            
   RMAX   =    1.935    core radius for proj-oper                               
   RAUG   =    1.300    factor for augmentation sphere                          
   RDEP   =    1.931    radius for radial grids                                 
   RDEPT  =    1.794    core radius for aug-charge                              
                                                                                
   Atomic configuration                                                         
    6 entries                                                                   
     n  l   j            E        occ.                                          
     1  0  0.50     -2084.0982   2.0000                                         
     2  0  0.50      -173.9859   2.0000                                         
     2  1  1.50      -124.4865   6.0000                                         
     3  0  0.50       -13.9692   2.0000                                         
     3  1  0.50        -5.5067   3.0000                                         
     3  2  1.50        -5.4423   0.0000                                         
   Description                                                                  
     l       E           TYP  RCUT    TYP  RCUT                                 
     0    -13.9691527     23  1.900                                             
     0    -11.7794650     23  1.900                                             
     1     -5.5066937     23  1.900                                             
     1     -0.2556953     23  1.900                                             
     2     -5.4423304     23  1.900                                             
  local pseudopotential read in
  partial core-charges read in
  partial kinetic energy density read in
  atomic valenz-charges read in
  non local Contribution for L=           0  read in
    real space projection operators read in
  non local Contribution for L=           0  read in
    real space projection operators read in
  non local Contribution for L=           1  read in
    real space projection operators read in
  non local Contribution for L=           1  read in
    real space projection operators read in
    PAW grid and wavefunctions read in
 
   number of l-projection  operators is LMAX  =           4
   number of lm-projection operators is LMMAX =           8
 
  PAW_PBE P 06Sep2000                   :
 energy of atom  1       EATOM= -176.0430
 kinetic energy error for atom=    0.0008 (will be added to EATOM!!)
 
 
 POSCAR:  P                                      
  positions in direct lattice
  No initial velocities read in
 exchange correlation table for  LEXCH =        8
   RHO(1)=    0.500       N(1)  =     2000
   RHO(2)=  100.500       N(2)  =     4000
 


--------------------------------------------------------------------------------------------------------


 ion  position               nearest neighbor table
   1  0.000  0.000  0.708-   2 2.18   4 2.91   4 2.91   4 2.91   4 2.91
   2  0.000  0.000  0.292-   1 2.18   3 2.91   3 2.91   3 2.91   3 2.91
   3  0.500  0.500  0.208-   4 2.18   2 2.91   2 2.91   2 2.91   2 2.91
   4  0.500  0.500  0.792-   3 2.18   1 2.91   1 2.91   1 2.91   1 2.91
 
  LATTYP: Found a simple tetragonal cell.
 ALAT       =     4.0616348000
 C/A-ratio  =     1.2935630747
  
  Lattice vectors:
  
 A1 = (   4.0616348000,   0.0000000000,   0.0000000000)
 A2 = (   0.0000000000,   4.0616348000,   0.0000000000)
 A3 = (   0.0000000000,   0.0000000000,   5.2539808000)


Analysis of symmetry for initial positions (statically):
=====================================================================
 Subroutine PRICEL returns following result:
 
  LATTYP: Found a body centered tetragonal cell.
 ALAT       =     4.0616348000
 C/A-ratio  =     1.2935630747
  
  Lattice vectors:
  
 A1 = (  -2.0308174000,  -2.0308174000,   2.6269904000)
 A2 = (   2.0308174000,   2.0308174000,   2.6269904000)
 A3 = (  -2.0308174000,   2.0308174000,  -2.6269904000)
 
   2 primitive cells build up your supercell.
 

 Routine SETGRP: Setting up the symmetry group for a 
 simple tetragonal supercell.


 Subroutine GETGRP returns: Found 16 space group operations
 (whereof 16 operations were pure point group operations)
 out of a pool of 16 trial point group operations.


The static configuration has the point symmetry D_4h.


Analysis of symmetry for dynamics (positions and initial velocities):
=====================================================================
 Subroutine PRICEL returns following result:
 
  LATTYP: Found a body centered tetragonal cell.
 ALAT       =     4.0616348000
 C/A-ratio  =     1.2935630747
  
  Lattice vectors:
  
 A1 = (  -2.0308174000,  -2.0308174000,   2.6269904000)
 A2 = (   2.0308174000,   2.0308174000,   2.6269904000)
 A3 = (  -2.0308174000,   2.0308174000,  -2.6269904000)
 
   2 primitive cells build up your supercell.
 

 Routine SETGRP: Setting up the symmetry group for a 
 simple tetragonal supercell.


 Subroutine GETGRP returns: Found 16 space group operations
 (whereof 16 operations were pure point group operations)
 out of a pool of 16 trial point group operations.


The dynamic configuration has the point symmetry D_4h.


Analysis of magnetic symmetry:
=====================================================================

 Subroutine MAGSYM returns: Found 16 space group operations
 (whereof 16 operations were pure point group operations)
 out of a pool of 16 trial space group operations
 (whereof 16 operations were pure point group operations)
 and found also     2 'primitive' translations


The magnetic configuration has the point symmetry D_4h.


 irot  :   1
 --------------------------------------------------------------------
 isymop:   1   0   0
           0   1   0
           0   0   1

 gtrans:     0.0000000     0.0000000     0.0000000

 ptrans:     0.0000000     0.0000000     0.0000000
 rotmap:
 (   1->   1)  (   2->   2)  (   3->   3)  (   4->   4) 

 ptrans:     0.5000000     0.5000000     0.5000000
 rotmap:
 (   1->   3)  (   2->   4)  (   3->   1)  (   4->   2) 


 irot  :   2
 --------------------------------------------------------------------
 isymop:  -1   0   0
           0  -1   0
           0   0  -1

 gtrans:     0.0000000     0.0000000     0.0000000

 ptrans:     0.0000000     0.0000000     0.0000000
 rotmap:
 (   1->   2)  (   2->   1)  (   3->   4)  (   4->   3) 

 ptrans:     0.5000000     0.5000000     0.5000000
 rotmap:
 (   1->   4)  (   2->   3)  (   3->   2)  (   4->   1) 


 irot  :   3
 --------------------------------------------------------------------
 isymop:   0  -1   0
           1   0   0
           0   0   1

 gtrans:     0.0000000     0.0000000     0.0000000

 ptrans:     0.0000000     0.0000000     0.0000000
 rotmap:
 (   1->   1)  (   2->   2)  (   3->   3)  (   4->   4) 

 ptrans:     0.5000000     0.5000000     0.5000000
 rotmap:
 (   1->   3)  (   2->   4)  (   3->   1)  (   4->   2) 


 irot  :   4
 --------------------------------------------------------------------
 isymop:   0   1   0
          -1   0   0
           0   0  -1

 gtrans:     0.0000000     0.0000000     0.0000000

 ptrans:     0.0000000     0.0000000     0.0000000
 rotmap:
 (   1->   2)  (   2->   1)  (   3->   4)  (   4->   3) 

 ptrans:     0.5000000     0.5000000     0.5000000
 rotmap:
 (   1->   4)  (   2->   3)  (   3->   2)  (   4->   1) 


 irot  :   5
 --------------------------------------------------------------------
 isymop:  -1   0   0
           0  -1   0
           0   0   1

 gtrans:     0.0000000     0.0000000     0.0000000

 ptrans:     0.0000000     0.0000000     0.0000000
 rotmap:
 (   1->   1)  (   2->   2)  (   3->   3)  (   4->   4) 

 ptrans:     0.5000000     0.5000000     0.5000000
 rotmap:
 (   1->   3)  (   2->   4)  (   3->   1)  (   4->   2) 


 irot  :   6
 --------------------------------------------------------------------
 isymop:   1   0   0
           0   1   0
           0   0  -1

 gtrans:     0.0000000     0.0000000     0.0000000

 ptrans:     0.0000000     0.0000000     0.0000000
 rotmap:
 (   1->   2)  (   2->   1)  (   3->   4)  (   4->   3) 

 ptrans:     0.5000000     0.5000000     0.5000000
 rotmap:
 (   1->   4)  (   2->   3)  (   3->   2)  (   4->   1) 


 irot  :   7
 --------------------------------------------------------------------
 isymop:   0   1   0
          -1   0   0
           0   0   1

 gtrans:     0.0000000     0.0000000     0.0000000

 ptrans:     0.0000000     0.0000000     0.0000000
 rotmap:
 (   1->   1)  (   2->   2)  (   3->   3)  (   4->   4) 

 ptrans:     0.5000000     0.5000000     0.5000000
 rotmap:
 (   1->   3)  (   2->   4)  (   3->   1)  (   4->   2) 


 irot  :   8
 --------------------------------------------------------------------
 isymop:   0  -1   0
           1   0   0
           0   0  -1

 gtrans:     0.0000000     0.0000000     0.0000000

 ptrans:     0.0000000     0.0000000     0.0000000
 rotmap:
 (   1->   2)  (   2->   1)  (   3->   4)  (   4->   3) 

 ptrans:     0.5000000     0.5000000     0.5000000
 rotmap:
 (   1->   4)  (   2->   3)  (   3->   2)  (   4->   1) 


 irot  :   9
 --------------------------------------------------------------------
 isymop:  -1   0   0
           0   1   0
           0   0  -1

 gtrans:     0.0000000     0.0000000     0.0000000

 ptrans:     0.0000000     0.0000000     0.0000000
 rotmap:
 (   1->   2)  (   2->   1)  (   3->   4)  (   4->   3) 

 ptrans:     0.5000000     0.5000000     0.5000000
 rotmap:
 (   1->   4)  (   2->   3)  (   3->   2)  (   4->   1) 


 irot  :  10
 --------------------------------------------------------------------
 isymop:   1   0   0
           0  -1   0
           0   0   1

 gtrans:     0.0000000     0.0000000     0.0000000

 ptrans:     0.0000000     0.0000000     0.0000000
 rotmap:
 (   1->   1)  (   2->   2)  (   3->   3)  (   4->   4) 

 ptrans:     0.5000000     0.5000000     0.5000000
 rotmap:
 (   1->   3)  (   2->   4)  (   3->   1)  (   4->   2) 


 irot  :  11
 --------------------------------------------------------------------
 isymop:   0   1   0
           1   0   0
           0   0  -1

 gtrans:     0.0000000     0.0000000     0.0000000

 ptrans:     0.0000000     0.0000000     0.0000000
 rotmap:
 (   1->   2)  (   2->   1)  (   3->   4)  (   4->   3) 

 ptrans:     0.5000000     0.5000000     0.5000000
 rotmap:
 (   1->   4)  (   2->   3)  (   3->   2)  (   4->   1) 


 irot  :  12
 --------------------------------------------------------------------
 isymop:   0  -1   0
          -1   0   0
           0   0   1

 gtrans:     0.0000000     0.0000000     0.0000000

 ptrans:     0.0000000     0.0000000     0.0000000
 rotmap:
 (   1->   1)  (   2->   2)  (   3->   3)  (   4->   4) 

 ptrans:     0.5000000     0.5000000     0.5000000
 rotmap:
 (   1->   3)  (   2->   4)  (   3->   1)  (   4->   2) 


 irot  :  13
 --------------------------------------------------------------------
 isymop:   1   0   0
           0  -1   0
           0   0  -1

 gtrans:     0.0000000     0.0000000     0.0000000

 ptrans:     0.0000000     0.0000000     0.0000000
 rotmap:
 (   1->   2)  (   2->   1)  (   3->   4)  (   4->   3) 

 ptrans:     0.5000000     0.5000000     0.5000000
 rotmap:
 (   1->   4)  (   2->   3)  (   3->   2)  (   4->   1) 


 irot  :  14
 --------------------------------------------------------------------
 isymop:  -1   0   0
           0   1   0
           0   0   1

 gtrans:     0.0000000     0.0000000     0.0000000

 ptrans:     0.0000000     0.0000000     0.0000000
 rotmap:
 (   1->   1)  (   2->   2)  (   3->   3)  (   4->   4) 

 ptrans:     0.5000000     0.5000000     0.5000000
 rotmap:
 (   1->   3)  (   2->   4)  (   3->   1)  (   4->   2) 


 irot  :  15
 --------------------------------------------------------------------
 isymop:   0  -1   0
          -1   0   0
           0   0  -1

 gtrans:     0.0000000     0.0000000     0.0000000

 ptrans:     0.0000000     0.0000000     0.0000000
 rotmap:
 (   1->   2)  (   2->   1)  (   3->   4)  (   4->   3) 

 ptrans:     0.5000000     0.5000000     0.5000000
 rotmap:
 (   1->   4)  (   2->   3)  (   3->   2)  (   4->   1) 


 irot  :  16
 --------------------------------------------------------------------
 isymop:   0   1   0
           1   0   0
           0   0   1

 gtrans:     0.0000000     0.0000000     0.0000000

 ptrans:     0.0000000     0.0000000     0.0000000
 rotmap:
 (   1->   1)  (   2->   2)  (   3->   3)  (   4->   4) 

 ptrans:     0.5000000     0.5000000     0.5000000
 rotmap:
 (   1->   3)  (   2->   4)  (   3->   1)  (   4->   2) 
 
 
 KPOINTS:                                         

Automatic generation of k-mesh.
Space group operators:
 irot     det(A)      alpha        n_x        n_y        n_z      tau_x      tau_y      tau_z
    1     1.000000     0.000000     1.000000     0.000000     0.000000     0.000000     0.000000     0.000000
    2    -1.000000     0.000000     1.000000     0.000000     0.000000     0.000000     0.000000     0.000000
    3     1.000000    90.000000     0.000000     0.000000    -1.000000     0.000000     0.000000     0.000000
    4    -1.000000    90.000000     0.000000     0.000000    -1.000000     0.000000     0.000000     0.000000
    5     1.000000   180.000000     0.000000     0.000000     1.000000     0.000000     0.000000     0.000000
    6    -1.000000   180.000000     0.000000     0.000000     1.000000     0.000000     0.000000     0.000000
    7     1.000000    90.000000     0.000000     0.000000     1.000000     0.000000     0.000000     0.000000
    8    -1.000000    90.000000     0.000000     0.000000     1.000000     0.000000     0.000000     0.000000
    9     1.000000   180.000000     0.000000     1.000000     0.000000     0.000000     0.000000     0.000000
   10    -1.000000   180.000000     0.000000     1.000000     0.000000     0.000000     0.000000     0.000000
   11     1.000000   180.000000     0.707107     0.707107     0.000000     0.000000     0.000000     0.000000
   12    -1.000000   180.000000     0.707107     0.707107     0.000000     0.000000     0.000000     0.000000
   13     1.000000   180.000000     1.000000     0.000000     0.000000     0.000000     0.000000     0.000000
   14    -1.000000   180.000000     1.000000     0.000000     0.000000     0.000000     0.000000     0.000000
   15     1.000000   180.000000     0.707107    -0.707107     0.000000     0.000000     0.000000     0.000000
   16    -1.000000   180.000000     0.707107    -0.707107     0.000000     0.000000     0.000000     0.000000
 
 Subroutine IBZKPT returns following result:
 ===========================================
 
 Found    120 irreducible k-points:
 
 Following reciprocal coordinates:
            Coordinates               Weight
  0.000000  0.000000  0.000000      1.000000
  0.111111  0.000000  0.000000      2.000000
  0.222222  0.000000  0.000000      2.000000
  0.333333  0.000000  0.000000      2.000000
  0.444444  0.000000  0.000000      2.000000
  0.000000  0.090909  0.000000      2.000000
  0.111111  0.090909  0.000000      4.000000
  0.222222  0.090909  0.000000      4.000000
  0.333333  0.090909  0.000000      4.000000
  0.444444  0.090909  0.000000      4.000000
  0.000000  0.181818  0.000000      2.000000
  0.111111  0.181818  0.000000      4.000000
  0.222222  0.181818  0.000000      4.000000
  0.333333  0.181818  0.000000      4.000000
  0.444444  0.181818  0.000000      4.000000
  0.000000  0.272727  0.000000      2.000000
  0.111111  0.272727  0.000000      4.000000
  0.222222  0.272727  0.000000      4.000000
  0.333333  0.272727  0.000000      4.000000
  0.444444  0.272727  0.000000      4.000000
  0.000000  0.363636  0.000000      2.000000
  0.111111  0.363636  0.000000      4.000000
  0.222222  0.363636  0.000000      4.000000
  0.333333  0.363636  0.000000      4.000000
  0.444444  0.363636  0.000000      4.000000
  0.000000  0.454545  0.000000      2.000000
  0.111111  0.454545  0.000000      4.000000
  0.222222  0.454545  0.000000      4.000000
  0.333333  0.454545  0.000000      4.000000
  0.444444  0.454545  0.000000      4.000000
  0.000000  0.000000  0.142857      2.000000
  0.111111  0.000000  0.142857      4.000000
  0.222222  0.000000  0.142857      4.000000
  0.333333  0.000000  0.142857      4.000000
  0.444444  0.000000  0.142857      4.000000
  0.000000  0.090909  0.142857      4.000000
  0.111111  0.090909  0.142857      8.000000
  0.222222  0.090909  0.142857      8.000000
  0.333333  0.090909  0.142857      8.000000
  0.444444  0.090909  0.142857      8.000000
  0.000000  0.181818  0.142857      4.000000
  0.111111  0.181818  0.142857      8.000000
  0.222222  0.181818  0.142857      8.000000
  0.333333  0.181818  0.142857      8.000000
  0.444444  0.181818  0.142857      8.000000
  0.000000  0.272727  0.142857      4.000000
  0.111111  0.272727  0.142857      8.000000
  0.222222  0.272727  0.142857      8.000000
  0.333333  0.272727  0.142857      8.000000
  0.444444  0.272727  0.142857      8.000000
  0.000000  0.363636  0.142857      4.000000
  0.111111  0.363636  0.142857      8.000000
  0.222222  0.363636  0.142857      8.000000
  0.333333  0.363636  0.142857      8.000000
  0.444444  0.363636  0.142857      8.000000
  0.000000  0.454545  0.142857      4.000000
  0.111111  0.454545  0.142857      8.000000
  0.222222  0.454545  0.142857      8.000000
  0.333333  0.454545  0.142857      8.000000
  0.444444  0.454545  0.142857      8.000000
  0.000000  0.000000  0.285714      2.000000
  0.111111  0.000000  0.285714      4.000000
  0.222222  0.000000  0.285714      4.000000
  0.333333  0.000000  0.285714      4.000000
  0.444444  0.000000  0.285714      4.000000
  0.000000  0.090909  0.285714      4.000000
  0.111111  0.090909  0.285714      8.000000
  0.222222  0.090909  0.285714      8.000000
  0.333333  0.090909  0.285714      8.000000
  0.444444  0.090909  0.285714      8.000000
  0.000000  0.181818  0.285714      4.000000
  0.111111  0.181818  0.285714      8.000000
  0.222222  0.181818  0.285714      8.000000
  0.333333  0.181818  0.285714      8.000000
  0.444444  0.181818  0.285714      8.000000
  0.000000  0.272727  0.285714      4.000000
  0.111111  0.272727  0.285714      8.000000
  0.222222  0.272727  0.285714      8.000000
  0.333333  0.272727  0.285714      8.000000
  0.444444  0.272727  0.285714      8.000000
  0.000000  0.363636  0.285714      4.000000
  0.111111  0.363636  0.285714      8.000000
  0.222222  0.363636  0.285714      8.000000
  0.333333  0.363636  0.285714      8.000000
  0.444444  0.363636  0.285714      8.000000
  0.000000  0.454545  0.285714      4.000000
  0.111111  0.454545  0.285714      8.000000
  0.222222  0.454545  0.285714      8.000000
  0.333333  0.454545  0.285714      8.000000
  0.444444  0.454545  0.285714      8.000000
  0.000000  0.000000  0.428571      2.000000
  0.111111  0.000000  0.428571      4.000000
  0.222222  0.000000  0.428571      4.000000
  0.333333  0.000000  0.428571      4.000000
  0.444444  0.000000  0.428571      4.000000
  0.000000  0.090909  0.428571      4.000000
  0.111111  0.090909  0.428571      8.000000
  0.222222  0.090909  0.428571      8.000000
  0.333333  0.090909  0.428571      8.000000
  0.444444  0.090909  0.428571      8.000000
  0.000000  0.181818  0.428571      4.000000
  0.111111  0.181818  0.428571      8.000000
  0.222222  0.181818  0.428571      8.000000
  0.333333  0.181818  0.428571      8.000000
  0.444444  0.181818  0.428571      8.000000
  0.000000  0.272727  0.428571      4.000000
  0.111111  0.272727  0.428571      8.000000
  0.222222  0.272727  0.428571      8.000000
  0.333333  0.272727  0.428571      8.000000
  0.444444  0.272727  0.428571      8.000000
  0.000000  0.363636  0.428571      4.000000
  0.111111  0.363636  0.428571      8.000000
  0.222222  0.363636  0.428571      8.000000
  0.333333  0.363636  0.428571      8.000000
  0.444444  0.363636  0.428571      8.000000
  0.000000  0.454545  0.428571      4.000000
  0.111111  0.454545  0.428571      8.000000
  0.222222  0.454545  0.428571      8.000000
  0.333333  0.454545  0.428571      8.000000
  0.444444  0.454545  0.428571      8.000000
 
 Following cartesian coordinates:
            Coordinates               Weight
  0.000000  0.000000  0.000000      1.000000
  0.027356  0.000000  0.000000      2.000000
  0.054713  0.000000  0.000000      2.000000
  0.082069  0.000000  0.000000      2.000000
  0.109425  0.000000  0.000000      2.000000
  0.000000  0.022382  0.000000      2.000000
  0.027356  0.022382  0.000000      4.000000
  0.054713  0.022382  0.000000      4.000000
  0.082069  0.022382  0.000000      4.000000
  0.109425  0.022382  0.000000      4.000000
  0.000000  0.044765  0.000000      2.000000
  0.027356  0.044765  0.000000      4.000000
  0.054713  0.044765  0.000000      4.000000
  0.082069  0.044765  0.000000      4.000000
  0.109425  0.044765  0.000000      4.000000
  0.000000  0.067147  0.000000      2.000000
  0.027356  0.067147  0.000000      4.000000
  0.054713  0.067147  0.000000      4.000000
  0.082069  0.067147  0.000000      4.000000
  0.109425  0.067147  0.000000      4.000000
  0.000000  0.089530  0.000000      2.000000
  0.027356  0.089530  0.000000      4.000000
  0.054713  0.089530  0.000000      4.000000
  0.082069  0.089530  0.000000      4.000000
  0.109425  0.089530  0.000000      4.000000
  0.000000  0.111912  0.000000      2.000000
  0.027356  0.111912  0.000000      4.000000
  0.054713  0.111912  0.000000      4.000000
  0.082069  0.111912  0.000000      4.000000
  0.109425  0.111912  0.000000      4.000000
  0.000000  0.000000  0.027190      2.000000
  0.027356  0.000000  0.027190      4.000000
  0.054713  0.000000  0.027190      4.000000
  0.082069  0.000000  0.027190      4.000000
  0.109425  0.000000  0.027190      4.000000
  0.000000  0.022382  0.027190      4.000000
  0.027356  0.022382  0.027190      8.000000
  0.054713  0.022382  0.027190      8.000000
  0.082069  0.022382  0.027190      8.000000
  0.109425  0.022382  0.027190      8.000000
  0.000000  0.044765  0.027190      4.000000
  0.027356  0.044765  0.027190      8.000000
  0.054713  0.044765  0.027190      8.000000
  0.082069  0.044765  0.027190      8.000000
  0.109425  0.044765  0.027190      8.000000
  0.000000  0.067147  0.027190      4.000000
  0.027356  0.067147  0.027190      8.000000
  0.054713  0.067147  0.027190      8.000000
  0.082069  0.067147  0.027190      8.000000
  0.109425  0.067147  0.027190      8.000000
  0.000000  0.089530  0.027190      4.000000
  0.027356  0.089530  0.027190      8.000000
  0.054713  0.089530  0.027190      8.000000
  0.082069  0.089530  0.027190      8.000000
  0.109425  0.089530  0.027190      8.000000
  0.000000  0.111912  0.027190      4.000000
  0.027356  0.111912  0.027190      8.000000
  0.054713  0.111912  0.027190      8.000000
  0.082069  0.111912  0.027190      8.000000
  0.109425  0.111912  0.027190      8.000000
  0.000000  0.000000  0.054381      2.000000
  0.027356  0.000000  0.054381      4.000000
  0.054713  0.000000  0.054381      4.000000
  0.082069  0.000000  0.054381      4.000000
  0.109425  0.000000  0.054381      4.000000
  0.000000  0.022382  0.054381      4.000000
  0.027356  0.022382  0.054381      8.000000
  0.054713  0.022382  0.054381      8.000000
  0.082069  0.022382  0.054381      8.000000
  0.109425  0.022382  0.054381      8.000000
  0.000000  0.044765  0.054381      4.000000
  0.027356  0.044765  0.054381      8.000000
  0.054713  0.044765  0.054381      8.000000
  0.082069  0.044765  0.054381      8.000000
  0.109425  0.044765  0.054381      8.000000
  0.000000  0.067147  0.054381      4.000000
  0.027356  0.067147  0.054381      8.000000
  0.054713  0.067147  0.054381      8.000000
  0.082069  0.067147  0.054381      8.000000
  0.109425  0.067147  0.054381      8.000000
  0.000000  0.089530  0.054381      4.000000
  0.027356  0.089530  0.054381      8.000000
  0.054713  0.089530  0.054381      8.000000
  0.082069  0.089530  0.054381      8.000000
  0.109425  0.089530  0.054381      8.000000
  0.000000  0.111912  0.054381      4.000000
  0.027356  0.111912  0.054381      8.000000
  0.054713  0.111912  0.054381      8.000000
  0.082069  0.111912  0.054381      8.000000
  0.109425  0.111912  0.054381      8.000000
  0.000000  0.000000  0.081571      2.000000
  0.027356  0.000000  0.081571      4.000000
  0.054713  0.000000  0.081571      4.000000
  0.082069  0.000000  0.081571      4.000000
  0.109425  0.000000  0.081571      4.000000
  0.000000  0.022382  0.081571      4.000000
  0.027356  0.022382  0.081571      8.000000
  0.054713  0.022382  0.081571      8.000000
  0.082069  0.022382  0.081571      8.000000
  0.109425  0.022382  0.081571      8.000000
  0.000000  0.044765  0.081571      4.000000
  0.027356  0.044765  0.081571      8.000000
  0.054713  0.044765  0.081571      8.000000
  0.082069  0.044765  0.081571      8.000000
  0.109425  0.044765  0.081571      8.000000
  0.000000  0.067147  0.081571      4.000000
  0.027356  0.067147  0.081571      8.000000
  0.054713  0.067147  0.081571      8.000000
  0.082069  0.067147  0.081571      8.000000
  0.109425  0.067147  0.081571      8.000000
  0.000000  0.089530  0.081571      4.000000
  0.027356  0.089530  0.081571      8.000000
  0.054713  0.089530  0.081571      8.000000
  0.082069  0.089530  0.081571      8.000000
  0.109425  0.089530  0.081571      8.000000
  0.000000  0.111912  0.081571      4.000000
  0.027356  0.111912  0.081571      8.000000
  0.054713  0.111912  0.081571      8.000000
  0.082069  0.111912  0.081571      8.000000
  0.109425  0.111912  0.081571      8.000000
 


--------------------------------------------------------------------------------------------------------




 Dimension of arrays:
   k-points           NKPTS =    120   k-points in BZ     NKDIM =    120   number of bands    NBANDS=     16
   number of dos      NEDOS =    301   number of ions     NIONS =      4
   non local maximal  LDIM  =      4   non local SUM 2l+1 LMDIM =      8
   total plane-waves  NPLWV =  40960
   max r-space proj   IRMAX =      1   max aug-charges    IRDMAX=  15298
   dimension x,y,z NGX =    32 NGY =   32 NGZ =   40
   dimension x,y,z NGXF=    32 NGYF=   32 NGZF=   42
   support grid    NGXF=    64 NGYF=   64 NGZF=   84
   ions per type =               4
 NGX,Y,Z   is equivalent  to a cutoff of  13.10, 13.10, 12.66 a.u.
 NGXF,Y,Z  is equivalent  to a cutoff of  13.10, 13.10, 13.29 a.u.


 I would recommend the setting:
   dimension x,y,z NGX =    31 NGY =   31 NGZ =   40
 SYSTEM =  LiAu                                    
 POSCAR =   P                                      

 Startparameter for this run:
   NWRITE =      2    write-flag & timer
   PREC   = high      normal or accurate (medium, high low for compatibility)
   ISTART =      0    job   : 0-new  1-cont  2-samecut
   ICHARG =      2    charge: 1-file 2-atom 10-const
   ISPIN  =      2    spin polarized calculation?
   LNONCOLLINEAR =      F non collinear calculations
   LSORBIT =      F    spin-orbit coupling
   INIWAV =      1    electr: 0-lowe 1-rand  2-diag
   LASPH  =      T    aspherical Exc in radial PAW
   METAGGA=      F    non-selfconsistent MetaGGA calc.

 Electronic Relaxation 1
   ENCUT  =  550.0 eV  40.42 Ry    6.36 a.u.   7.77  7.77 10.05*2*pi/ulx,y,z
   ENINI  =  550.0     initial cutoff
   ENAUG  =  342.9 eV  augmentation charge cutoff
   NELM   =    100;   NELMIN=  8; NELMDL= -5     # of ELM steps 
   EDIFF  = 0.1E-06   stopping-criterion for ELM
   LREAL  =      F    real-space projection
   NLSPLINE    = F    spline interpolate recip. space projectors
   LCOMPAT=      F    compatible to vasp.4.4
   GGA_COMPAT  = T    GGA compatible to vasp.4.4-vasp.4.6
   LMAXPAW     = -100 max onsite density
   LMAXMIX     =    4 max onsite mixed and CHGCAR
   VOSKOWN=      0    Vosko Wilk Nusair interpolation
   ROPT   =    0.00000
 Ionic relaxation
   EDIFFG = 0.1E-05   stopping-criterion for IOM
   NSW    =      0    number of steps for IOM
   NBLOCK =      1;   KBLOCK =      1    inner block; outer block 
   IBRION =     -1    ionic relax: 0-MD 1-quasi-New 2-CG
   NFREE  =      0    steps in history (QN), initial steepest desc. (CG)
   ISIF   =      7    stress and relaxation
   IWAVPR =     10    prediction:  0-non 1-charg 2-wave 3-comb
   ISYM   =      2    0-nonsym 1-usesym 2-fastsym
   LCORR  =      T    Harris-Foulkes like correction to forces

   POTIM  = 0.5000    time-step for ionic-motion
   TEIN   =    0.0    initial temperature
   TEBEG  =    0.0;   TEEND  =   0.0 temperature during run
   SMASS  =  -3.00    Nose mass-parameter (am)
   estimated Nose-frequenzy (Omega)   =  0.10E-29 period in steps =****** mass=  -0.377E-27a.u.
   SCALEE = 1.0000    scale energy and forces
   NPACO  =    256;   APACO  = 16.0  distance and # of slots for P.C.
   PSTRESS=    0.0 pullay stress

  Mass of Ions in am
   POMASS =  30.97
  Ionic Valenz
   ZVAL   =   5.00
  Atomic Wigner-Seitz radii
   RWIGS  =  -1.00
  virtual crystal weights 
   VCA    =   1.00
   NELECT =      20.0000    total number of electrons
   NUPDOWN=      -1.0000    fix difference up-down

 DOS related values:
   EMIN   =  10.00;   EMAX   =-10.00  energy-range for DOS
   EFERMI =   0.00
   ISMEAR =     0;   SIGMA  =   0.02  broadening in eV -4-tet -1-fermi 0-gaus

 Electronic relaxation 2 (details)
   IALGO  =     38    algorithm
   LDIAG  =      T    sub-space diagonalisation (order eigenvalues)
   LSUBROT=      T    optimize rotation matrix (better conditioning)
   TURBO    =      0    0=normal 1=particle mesh
   IRESTART =      0    0=no restart 2=restart with 2 vectors
   NREBOOT  =      0    no. of reboots
   NMIN     =      0    reboot dimension
   EREF     =   0.00    reference energy to select bands
   IMIX   =      4    mixing-type and parameters
     AMIX     =   0.40;   BMIX     =  1.00
     AMIX_MAG =   1.60;   BMIX_MAG =  1.00
     AMIN     =   0.10
     WC   =   100.;   INIMIX=   1;  MIXPRE=   1;  MAXMIX= -45

 Intra band minimization:
   WEIMIN = 0.0000     energy-eigenvalue tresh-hold
   EBREAK =  0.16E-08  absolut break condition
   DEPER  =   0.30     relativ break condition  

   TIME   =   0.40     timestep for ELM

  volume/ion in A,a.u.               =      21.67       146.23
  Fermi-wavevector in a.u.,A,eV,Ry     =   1.004126  1.897522 13.718325  1.008268
  Thomas-Fermi vector in A             =   2.136722
 
 Write flags
   LWAVE  =      T    write WAVECAR
   LCHARG =      T    write CHGCAR
   LVTOT  =      F    write LOCPOT, total local potential
   LVHAR  =      F    write LOCPOT, Hartree potential only
   LELF   =      T    write electronic localiz. function (ELF)
   LORBIT =     11    0 simple, 1 ext, 2 COOP (PROOUT)


 Dipole corrections
   LMONO  =      F    monopole corrections only (constant potential shift)
   LDIPOL =      F    correct potential (dipole corrections)
   IDIPOL =      0    1-x, 2-y, 3-z, 4-all directions 
   EPSILON=  1.0000000 bulk dielectric constant

 Exchange correlation treatment:
   GGA     =    --    GGA type
   LEXCH   =     8    internal setting for exchange type
   VOSKOWN=      0    Vosko Wilk Nusair interpolation
   LHFCALC =     F    Hartree Fock is set to
   LHFONE  =     F    Hartree Fock one center treatment
   AEXX    =    0.0000 exact exchange contribution

 Linear response parameters
   LEPSILON=     F    determine dielectric tensor
   LRPA    =     F    only Hartree local field effects (RPA)
   LNABLA  =     F    use nabla operator in PAW spheres
   LVEL    =     F    velocity operator in full k-point grid
   LINTERFAST=   F  fast interpolation
   KINTER  =     0    interpolate to denser k-point grid
   CSHIFT  =0.1000    complex shift for real part using Kramers Kronig
   OMEGAMAX=  -1.0    maximum frequency
   DEG_THRESHOLD= 0.2000000E-02 threshold for treating states as degnerate
   RTIME   =    0.100 relaxation time in fs

 Orbital magnetization related:
   ORBITALMAG=     F  switch on orbital magnetization
   LCHIMAG   =     F  perturbation theory with respect to B field
   DQ        =  0.001000  dq finite difference perturbation B field



--------------------------------------------------------------------------------------------------------


 Static calculation
 charge density and potential will be updated during run
 spin polarized calculation
 Variant of blocked Davidson
 Davidson routine will perform the subspace rotation
 perform sub-space diagonalisation
    after iterative eigenvector-optimisation
 modified Broyden-mixing scheme, WC =      100.0
 initial mixing is a Kerker type mixing with AMIX =  0.4000 and BMIX =      1.0000
 Hartree-type preconditioning will be used
 using additional bands            6
 reciprocal scheme for non local part
 use partial core corrections
 calculate Harris-corrections to forces 
   (improved forces if not selfconsistent)
 use gradient corrections 
 use of overlap-Matrix (Vanderbilt PP)
 Gauss-broadening in eV      SIGMA  =   0.02


--------------------------------------------------------------------------------------------------------


  energy-cutoff  :      550.00
  volume of cell :       86.67
      direct lattice vectors                 reciprocal lattice vectors
     4.061634800  0.000000000  0.000000000     0.246206281  0.000000000  0.000000000
     0.000000000  4.061634800  0.000000000     0.000000000  0.246206281  0.000000000
     0.000000000  0.000000000  5.253980800     0.000000000  0.000000000  0.190331872

  length of vectors
     4.061634800  4.061634800  5.253980800     0.246206281  0.246206281  0.190331872


 
 k-points in units of 2pi/SCALE and weight:                                         
   0.00000000  0.00000000  0.00000000       0.001
   0.02735625  0.00000000  0.00000000       0.003
   0.05471251  0.00000000  0.00000000       0.003
   0.08206876  0.00000000  0.00000000       0.003
   0.10942501  0.00000000  0.00000000       0.003
   0.00000000  0.02238239  0.00000000       0.003
   0.02735625  0.02238239  0.00000000       0.006
   0.05471251  0.02238239  0.00000000       0.006
   0.08206876  0.02238239  0.00000000       0.006
   0.10942501  0.02238239  0.00000000       0.006
   0.00000000  0.04476478  0.00000000       0.003
   0.02735625  0.04476478  0.00000000       0.006
   0.05471251  0.04476478  0.00000000       0.006
   0.08206876  0.04476478  0.00000000       0.006
   0.10942501  0.04476478  0.00000000       0.006
   0.00000000  0.06714717  0.00000000       0.003
   0.02735625  0.06714717  0.00000000       0.006
   0.05471251  0.06714717  0.00000000       0.006
   0.08206876  0.06714717  0.00000000       0.006
   0.10942501  0.06714717  0.00000000       0.006
   0.00000000  0.08952956  0.00000000       0.003
   0.02735625  0.08952956  0.00000000       0.006
   0.05471251  0.08952956  0.00000000       0.006
   0.08206876  0.08952956  0.00000000       0.006
   0.10942501  0.08952956  0.00000000       0.006
   0.00000000  0.11191195  0.00000000       0.003
   0.02735625  0.11191195  0.00000000       0.006
   0.05471251  0.11191195  0.00000000       0.006
   0.08206876  0.11191195  0.00000000       0.006
   0.10942501  0.11191195  0.00000000       0.006
   0.00000000  0.00000000  0.02719027       0.003
   0.02735625  0.00000000  0.02719027       0.006
   0.05471251  0.00000000  0.02719027       0.006
   0.08206876  0.00000000  0.02719027       0.006
   0.10942501  0.00000000  0.02719027       0.006
   0.00000000  0.02238239  0.02719027       0.006
   0.02735625  0.02238239  0.02719027       0.012
   0.05471251  0.02238239  0.02719027       0.012
   0.08206876  0.02238239  0.02719027       0.012
   0.10942501  0.02238239  0.02719027       0.012
   0.00000000  0.04476478  0.02719027       0.006
   0.02735625  0.04476478  0.02719027       0.012
   0.05471251  0.04476478  0.02719027       0.012
   0.08206876  0.04476478  0.02719027       0.012
   0.10942501  0.04476478  0.02719027       0.012
   0.00000000  0.06714717  0.02719027       0.006
   0.02735625  0.06714717  0.02719027       0.012
   0.05471251  0.06714717  0.02719027       0.012
   0.08206876  0.06714717  0.02719027       0.012
   0.10942501  0.06714717  0.02719027       0.012
   0.00000000  0.08952956  0.02719027       0.006
   0.02735625  0.08952956  0.02719027       0.012
   0.05471251  0.08952956  0.02719027       0.012
   0.08206876  0.08952956  0.02719027       0.012
   0.10942501  0.08952956  0.02719027       0.012
   0.00000000  0.11191195  0.02719027       0.006
   0.02735625  0.11191195  0.02719027       0.012
   0.05471251  0.11191195  0.02719027       0.012
   0.08206876  0.11191195  0.02719027       0.012
   0.10942501  0.11191195  0.02719027       0.012
   0.00000000  0.00000000  0.05438053       0.003
   0.02735625  0.00000000  0.05438053       0.006
   0.05471251  0.00000000  0.05438053       0.006
   0.08206876  0.00000000  0.05438053       0.006
   0.10942501  0.00000000  0.05438053       0.006
   0.00000000  0.02238239  0.05438053       0.006
   0.02735625  0.02238239  0.05438053       0.012
   0.05471251  0.02238239  0.05438053       0.012
   0.08206876  0.02238239  0.05438053       0.012
   0.10942501  0.02238239  0.05438053       0.012
   0.00000000  0.04476478  0.05438053       0.006
   0.02735625  0.04476478  0.05438053       0.012
   0.05471251  0.04476478  0.05438053       0.012
   0.08206876  0.04476478  0.05438053       0.012
   0.10942501  0.04476478  0.05438053       0.012
   0.00000000  0.06714717  0.05438053       0.006
   0.02735625  0.06714717  0.05438053       0.012
   0.05471251  0.06714717  0.05438053       0.012
   0.08206876  0.06714717  0.05438053       0.012
   0.10942501  0.06714717  0.05438053       0.012
   0.00000000  0.08952956  0.05438053       0.006
   0.02735625  0.08952956  0.05438053       0.012
   0.05471251  0.08952956  0.05438053       0.012
   0.08206876  0.08952956  0.05438053       0.012
   0.10942501  0.08952956  0.05438053       0.012
   0.00000000  0.11191195  0.05438053       0.006
   0.02735625  0.11191195  0.05438053       0.012
   0.05471251  0.11191195  0.05438053       0.012
   0.08206876  0.11191195  0.05438053       0.012
   0.10942501  0.11191195  0.05438053       0.012
   0.00000000  0.00000000  0.08157080       0.003
   0.02735625  0.00000000  0.08157080       0.006
   0.05471251  0.00000000  0.08157080       0.006
   0.08206876  0.00000000  0.08157080       0.006
   0.10942501  0.00000000  0.08157080       0.006
   0.00000000  0.02238239  0.08157080       0.006
   0.02735625  0.02238239  0.08157080       0.012
   0.05471251  0.02238239  0.08157080       0.012
   0.08206876  0.02238239  0.08157080       0.012
   0.10942501  0.02238239  0.08157080       0.012
   0.00000000  0.04476478  0.08157080       0.006
   0.02735625  0.04476478  0.08157080       0.012
   0.05471251  0.04476478  0.08157080       0.012
   0.08206876  0.04476478  0.08157080       0.012
   0.10942501  0.04476478  0.08157080       0.012
   0.00000000  0.06714717  0.08157080       0.006
   0.02735625  0.06714717  0.08157080       0.012
   0.05471251  0.06714717  0.08157080       0.012
   0.08206876  0.06714717  0.08157080       0.012
   0.10942501  0.06714717  0.08157080       0.012
   0.00000000  0.08952956  0.08157080       0.006
   0.02735625  0.08952956  0.08157080       0.012
   0.05471251  0.08952956  0.08157080       0.012
   0.08206876  0.08952956  0.08157080       0.012
   0.10942501  0.08952956  0.08157080       0.012
   0.00000000  0.11191195  0.08157080       0.006
   0.02735625  0.11191195  0.08157080       0.012
   0.05471251  0.11191195  0.08157080       0.012
   0.08206876  0.11191195  0.08157080       0.012
   0.10942501  0.11191195  0.08157080       0.012
 
 k-points in reciprocal lattice and weights:                                         
   0.00000000  0.00000000  0.00000000       0.001
   0.11111111  0.00000000  0.00000000       0.003
   0.22222222  0.00000000  0.00000000       0.003
   0.33333333  0.00000000  0.00000000       0.003
   0.44444444  0.00000000  0.00000000       0.003
   0.00000000  0.09090909  0.00000000       0.003
   0.11111111  0.09090909  0.00000000       0.006
   0.22222222  0.09090909  0.00000000       0.006
   0.33333333  0.09090909  0.00000000       0.006
   0.44444444  0.09090909  0.00000000       0.006
   0.00000000  0.18181818  0.00000000       0.003
   0.11111111  0.18181818  0.00000000       0.006
   0.22222222  0.18181818  0.00000000       0.006
   0.33333333  0.18181818  0.00000000       0.006
   0.44444444  0.18181818  0.00000000       0.006
   0.00000000  0.27272727  0.00000000       0.003
   0.11111111  0.27272727  0.00000000       0.006
   0.22222222  0.27272727  0.00000000       0.006
   0.33333333  0.27272727  0.00000000       0.006
   0.44444444  0.27272727  0.00000000       0.006
   0.00000000  0.36363636  0.00000000       0.003
   0.11111111  0.36363636  0.00000000       0.006
   0.22222222  0.36363636  0.00000000       0.006
   0.33333333  0.36363636  0.00000000       0.006
   0.44444444  0.36363636  0.00000000       0.006
   0.00000000  0.45454545  0.00000000       0.003
   0.11111111  0.45454545  0.00000000       0.006
   0.22222222  0.45454545  0.00000000       0.006
   0.33333333  0.45454545  0.00000000       0.006
   0.44444444  0.45454545  0.00000000       0.006
   0.00000000  0.00000000  0.14285714       0.003
   0.11111111  0.00000000  0.14285714       0.006
   0.22222222  0.00000000  0.14285714       0.006
   0.33333333  0.00000000  0.14285714       0.006
   0.44444444  0.00000000  0.14285714       0.006
   0.00000000  0.09090909  0.14285714       0.006
   0.11111111  0.09090909  0.14285714       0.012
   0.22222222  0.09090909  0.14285714       0.012
   0.33333333  0.09090909  0.14285714       0.012
   0.44444444  0.09090909  0.14285714       0.012
   0.00000000  0.18181818  0.14285714       0.006
   0.11111111  0.18181818  0.14285714       0.012
   0.22222222  0.18181818  0.14285714       0.012
   0.33333333  0.18181818  0.14285714       0.012
   0.44444444  0.18181818  0.14285714       0.012
   0.00000000  0.27272727  0.14285714       0.006
   0.11111111  0.27272727  0.14285714       0.012
   0.22222222  0.27272727  0.14285714       0.012
   0.33333333  0.27272727  0.14285714       0.012
   0.44444444  0.27272727  0.14285714       0.012
   0.00000000  0.36363636  0.14285714       0.006
   0.11111111  0.36363636  0.14285714       0.012
   0.22222222  0.36363636  0.14285714       0.012
   0.33333333  0.36363636  0.14285714       0.012
   0.44444444  0.36363636  0.14285714       0.012
   0.00000000  0.45454545  0.14285714       0.006
   0.11111111  0.45454545  0.14285714       0.012
   0.22222222  0.45454545  0.14285714       0.012
   0.33333333  0.45454545  0.14285714       0.012
   0.44444444  0.45454545  0.14285714       0.012
   0.00000000  0.00000000  0.28571429       0.003
   0.11111111  0.00000000  0.28571429       0.006
   0.22222222  0.00000000  0.28571429       0.006
   0.33333333  0.00000000  0.28571429       0.006
   0.44444444  0.00000000  0.28571429       0.006
   0.00000000  0.09090909  0.28571429       0.006
   0.11111111  0.09090909  0.28571429       0.012
   0.22222222  0.09090909  0.28571429       0.012
   0.33333333  0.09090909  0.28571429       0.012
   0.44444444  0.09090909  0.28571429       0.012
   0.00000000  0.18181818  0.28571429       0.006
   0.11111111  0.18181818  0.28571429       0.012
   0.22222222  0.18181818  0.28571429       0.012
   0.33333333  0.18181818  0.28571429       0.012
   0.44444444  0.18181818  0.28571429       0.012
   0.00000000  0.27272727  0.28571429       0.006
   0.11111111  0.27272727  0.28571429       0.012
   0.22222222  0.27272727  0.28571429       0.012
   0.33333333  0.27272727  0.28571429       0.012
   0.44444444  0.27272727  0.28571429       0.012
   0.00000000  0.36363636  0.28571429       0.006
   0.11111111  0.36363636  0.28571429       0.012
   0.22222222  0.36363636  0.28571429       0.012
   0.33333333  0.36363636  0.28571429       0.012
   0.44444444  0.36363636  0.28571429       0.012
   0.00000000  0.45454545  0.28571429       0.006
   0.11111111  0.45454545  0.28571429       0.012
   0.22222222  0.45454545  0.28571429       0.012
   0.33333333  0.45454545  0.28571429       0.012
   0.44444444  0.45454545  0.28571429       0.012
   0.00000000  0.00000000  0.42857143       0.003
   0.11111111  0.00000000  0.42857143       0.006
   0.22222222  0.00000000  0.42857143       0.006
   0.33333333  0.00000000  0.42857143       0.006
   0.44444444  0.00000000  0.42857143       0.006
   0.00000000  0.09090909  0.42857143       0.006
   0.11111111  0.09090909  0.42857143       0.012
   0.22222222  0.09090909  0.42857143       0.012
   0.33333333  0.09090909  0.42857143       0.012
   0.44444444  0.09090909  0.42857143       0.012
   0.00000000  0.18181818  0.42857143       0.006
   0.11111111  0.18181818  0.42857143       0.012
   0.22222222  0.18181818  0.42857143       0.012
   0.33333333  0.18181818  0.42857143       0.012
   0.44444444  0.18181818  0.42857143       0.012
   0.00000000  0.27272727  0.42857143       0.006
   0.11111111  0.27272727  0.42857143       0.012
   0.22222222  0.27272727  0.42857143       0.012
   0.33333333  0.27272727  0.42857143       0.012
   0.44444444  0.27272727  0.42857143       0.012
   0.00000000  0.36363636  0.42857143       0.006
   0.11111111  0.36363636  0.42857143       0.012
   0.22222222  0.36363636  0.42857143       0.012
   0.33333333  0.36363636  0.42857143       0.012
   0.44444444  0.36363636  0.42857143       0.012
   0.00000000  0.45454545  0.42857143       0.006
   0.11111111  0.45454545  0.42857143       0.012
   0.22222222  0.45454545  0.42857143       0.012
   0.33333333  0.45454545  0.42857143       0.012
   0.44444444  0.45454545  0.42857143       0.012
 
 position of ions in fractional coordinates (direct lattice) 
   0.00000000  0.00000000  0.70783650
   0.00000000  0.00000000  0.29216350
   0.50000000  0.50000000  0.20783650
   0.50000000  0.50000000  0.79216350
 
 position of ions in cartesian coordinates  (Angst):
   0.00000000  0.00000000  3.71895940
   0.00000000  0.00000000  1.53502140
   2.03081740  2.03081740  1.09196900
   2.03081740  2.03081740  4.16201180
 


--------------------------------------------------------------------------------------------------------


 k-point  1 :   0.0000 0.0000 0.0000  plane waves:    2525
 k-point  2 :   0.1111 0.0000 0.0000  plane waves:    2533
 k-point  3 :   0.2222 0.0000 0.0000  plane waves:    2537
 k-point  4 :   0.3333 0.0000 0.0000  plane waves:    2554
 k-point  5 :   0.4444 0.0000 0.0000  plane waves:    2552
 k-point  6 :   0.0000 0.0909 0.0000  plane waves:    2521
 k-point  7 :   0.1111 0.0909 0.0000  plane waves:    2527
 k-point  8 :   0.2222 0.0909 0.0000  plane waves:    2530
 k-point  9 :   0.3333 0.0909 0.0000  plane waves:    2542
 k-point 10 :   0.4444 0.0909 0.0000  plane waves:    2553
 k-point 11 :   0.0000 0.1818 0.0000  plane waves:    2533
 k-point 12 :   0.1111 0.1818 0.0000  plane waves:    2530
 k-point 13 :   0.2222 0.1818 0.0000  plane waves:    2524
 k-point 14 :   0.3333 0.1818 0.0000  plane waves:    2541
 k-point 15 :   0.4444 0.1818 0.0000  plane waves:    2543
 k-point 16 :   0.0000 0.2727 0.0000  plane waves:    2542
 k-point 17 :   0.1111 0.2727 0.0000  plane waves:    2535
 k-point 18 :   0.2222 0.2727 0.0000  plane waves:    2525
 k-point 19 :   0.3333 0.2727 0.0000  plane waves:    2523
 k-point 20 :   0.4444 0.2727 0.0000  plane waves:    2525
 k-point 21 :   0.0000 0.3636 0.0000  plane waves:    2552
 k-point 22 :   0.1111 0.3636 0.0000  plane waves:    2548
 k-point 23 :   0.2222 0.3636 0.0000  plane waves:    2527
 k-point 24 :   0.3333 0.3636 0.0000  plane waves:    2531
 k-point 25 :   0.4444 0.3636 0.0000  plane waves:    2526
 k-point 26 :   0.0000 0.4545 0.0000  plane waves:    2550
 k-point 27 :   0.1111 0.4545 0.0000  plane waves:    2546
 k-point 28 :   0.2222 0.4545 0.0000  plane waves:    2533
 k-point 29 :   0.3333 0.4545 0.0000  plane waves:    2527
 k-point 30 :   0.4444 0.4545 0.0000  plane waves:    2529
 k-point 31 :   0.0000 0.0000 0.1429  plane waves:    2544
 k-point 32 :   0.1111 0.0000 0.1429  plane waves:    2533
 k-point 33 :   0.2222 0.0000 0.1429  plane waves:    2536
 k-point 34 :   0.3333 0.0000 0.1429  plane waves:    2544
 k-point 35 :   0.4444 0.0000 0.1429  plane waves:    2544
 k-point 36 :   0.0000 0.0909 0.1429  plane waves:    2541
 k-point 37 :   0.1111 0.0909 0.1429  plane waves:    2532
 k-point 38 :   0.2222 0.0909 0.1429  plane waves:    2532
 k-point 39 :   0.3333 0.0909 0.1429  plane waves:    2548
 k-point 40 :   0.4444 0.0909 0.1429  plane waves:    2546
 k-point 41 :   0.0000 0.1818 0.1429  plane waves:    2534
 k-point 42 :   0.1111 0.1818 0.1429  plane waves:    2529
 k-point 43 :   0.2222 0.1818 0.1429  plane waves:    2529
 k-point 44 :   0.3333 0.1818 0.1429  plane waves:    2534
 k-point 45 :   0.4444 0.1818 0.1429  plane waves:    2539
 k-point 46 :   0.0000 0.2727 0.1429  plane waves:    2542
 k-point 47 :   0.1111 0.2727 0.1429  plane waves:    2536
 k-point 48 :   0.2222 0.2727 0.1429  plane waves:    2528
 k-point 49 :   0.3333 0.2727 0.1429  plane waves:    2526
 k-point 50 :   0.4444 0.2727 0.1429  plane waves:    2536
 k-point 51 :   0.0000 0.3636 0.1429  plane waves:    2549
 k-point 52 :   0.1111 0.3636 0.1429  plane waves:    2542
 k-point 53 :   0.2222 0.3636 0.1429  plane waves:    2536
 k-point 54 :   0.3333 0.3636 0.1429  plane waves:    2533
 k-point 55 :   0.4444 0.3636 0.1429  plane waves:    2531
 k-point 56 :   0.0000 0.4545 0.1429  plane waves:    2542
 k-point 57 :   0.1111 0.4545 0.1429  plane waves:    2551
 k-point 58 :   0.2222 0.4545 0.1429  plane waves:    2539
 k-point 59 :   0.3333 0.4545 0.1429  plane waves:    2526
 k-point 60 :   0.4444 0.4545 0.1429  plane waves:    2533
 k-point 61 :   0.0000 0.0000 0.2857  plane waves:    2512
 k-point 62 :   0.1111 0.0000 0.2857  plane waves:    2535
 k-point 63 :   0.2222 0.0000 0.2857  plane waves:    2532
 k-point 64 :   0.3333 0.0000 0.2857  plane waves:    2536
 k-point 65 :   0.4444 0.0000 0.2857  plane waves:    2543
 k-point 66 :   0.0000 0.0909 0.2857  plane waves:    2533
 k-point 67 :   0.1111 0.0909 0.2857  plane waves:    2531
 k-point 68 :   0.2222 0.0909 0.2857  plane waves:    2537
 k-point 69 :   0.3333 0.0909 0.2857  plane waves:    2539
 k-point 70 :   0.4444 0.0909 0.2857  plane waves:    2544
 k-point 71 :   0.0000 0.1818 0.2857  plane waves:    2539
 k-point 72 :   0.1111 0.1818 0.2857  plane waves:    2536
 k-point 73 :   0.2222 0.1818 0.2857  plane waves:    2532
 k-point 74 :   0.3333 0.1818 0.2857  plane waves:    2551
 k-point 75 :   0.4444 0.1818 0.2857  plane waves:    2544
 k-point 76 :   0.0000 0.2727 0.2857  plane waves:    2537
 k-point 77 :   0.1111 0.2727 0.2857  plane waves:    2538
 k-point 78 :   0.2222 0.2727 0.2857  plane waves:    2536
 k-point 79 :   0.3333 0.2727 0.2857  plane waves:    2545
 k-point 80 :   0.4444 0.2727 0.2857  plane waves:    2546
 k-point 81 :   0.0000 0.3636 0.2857  plane waves:    2539
 k-point 82 :   0.1111 0.3636 0.2857  plane waves:    2542
 k-point 83 :   0.2222 0.3636 0.2857  plane waves:    2547
 k-point 84 :   0.3333 0.3636 0.2857  plane waves:    2541
 k-point 85 :   0.4444 0.3636 0.2857  plane waves:    2536
 k-point 86 :   0.0000 0.4545 0.2857  plane waves:    2547
 k-point 87 :   0.1111 0.4545 0.2857  plane waves:    2547
 k-point 88 :   0.2222 0.4545 0.2857  plane waves:    2541
 k-point 89 :   0.3333 0.4545 0.2857  plane waves:    2539
 k-point 90 :   0.4444 0.4545 0.2857  plane waves:    2543
 k-point 91 :   0.0000 0.0000 0.4286  plane waves:    2548
 k-point 92 :   0.1111 0.0000 0.4286  plane waves:    2541
 k-point 93 :   0.2222 0.0000 0.4286  plane waves:    2540
 k-point 94 :   0.3333 0.0000 0.4286  plane waves:    2537
 k-point 95 :   0.4444 0.0000 0.4286  plane waves:    2540
 k-point 96 :   0.0000 0.0909 0.4286  plane waves:    2546
 k-point 97 :   0.1111 0.0909 0.4286  plane waves:    2544
 k-point 98 :   0.2222 0.0909 0.4286  plane waves:    2534
 k-point 99 :   0.3333 0.0909 0.4286  plane waves:    2543
 k-point ** :   0.4444 0.0909 0.4286  plane waves:    2545
 k-point ** :   0.0000 0.1818 0.4286  plane waves:    2530
 k-point ** :   0.1111 0.1818 0.4286  plane waves:    2542
 k-point ** :   0.2222 0.1818 0.4286  plane waves:    2536
 k-point ** :   0.3333 0.1818 0.4286  plane waves:    2547
 k-point ** :   0.4444 0.1818 0.4286  plane waves:    2550
 k-point ** :   0.0000 0.2727 0.4286  plane waves:    2525
 k-point ** :   0.1111 0.2727 0.4286  plane waves:    2532
 k-point ** :   0.2222 0.2727 0.4286  plane waves:    2539
 k-point ** :   0.3333 0.2727 0.4286  plane waves:    2547
 k-point ** :   0.4444 0.2727 0.4286  plane waves:    2553
 k-point ** :   0.0000 0.3636 0.4286  plane waves:    2542
 k-point ** :   0.1111 0.3636 0.4286  plane waves:    2546
 k-point ** :   0.2222 0.3636 0.4286  plane waves:    2544
 k-point ** :   0.3333 0.3636 0.4286  plane waves:    2534
 k-point ** :   0.4444 0.3636 0.4286  plane waves:    2542
 k-point ** :   0.0000 0.4545 0.4286  plane waves:    2544
 k-point ** :   0.1111 0.4545 0.4286  plane waves:    2546
 k-point ** :   0.2222 0.4545 0.4286  plane waves:    2552
 k-point ** :   0.3333 0.4545 0.4286  plane waves:    2543
 k-point ** :   0.4444 0.4545 0.4286  plane waves:    2527

 maximum and minimum number of plane-waves per node :       666      616

 maximum number of plane-waves:      2554
 maximum index in each direction: 
   IXMAX=    7   IYMAX=    7   IZMAX=   10
   IXMIN=   -8   IYMIN=   -8   IZMIN=  -10

 NGX is ok and might be reduce to  32
 NGY is ok and might be reduce to  32
 WARNING: aliasing errors must be expected set NGZ to  42 to avoid them
 aliasing errors are usually negligible using standard VASP settings
 and one can safely disregard these warnings

 parallel 3D FFT for wavefunctions:
    minimum data exchange during FFTs selected (reduces bandwidth)
 parallel 3D FFT for charge:
    minimum data exchange during FFTs selected (reduces bandwidth)


 total amount of memory used by VASP on root node    46769. kBytes
========================================================================

   base      :      30000. kBytes
   nonl-proj :       4987. kBytes
   fftplans  :        734. kBytes
   grid      :       1028. kBytes
   one-center:          6. kBytes
   wavefun   :      10014. kBytes
 
 Broyden mixing: mesh for mixing (old mesh)
   NGX = 15   NGY = 15   NGZ = 21
  (NGX  = 32   NGY  = 32   NGZ  = 42)
  gives a total of   4725 points

 initial charge density was supplied:
 charge density of overlapping atoms calculated
 number of electron      20.0000000 magnetization       4.0000000
 keeping initial charge density in first step


--------------------------------------------------------------------------------------------------------


 Maximum index for augmentation-charges          728 (set IRDMAX)


--------------------------------------------------------------------------------------------------------


 First call to EWALD:  gamma=   0.401
 Maximum number of real-space cells 3x 3x 2
 Maximum number of reciprocal cells 3x 3x 3

 FEWALD executed in parallel
    FEWALD:  cpu time    0.02: real time    0.02


----------------------------------------- Iteration    1(   1)  ---------------------------------------


    POTLOK:  cpu time    0.10: real time    0.10
    SETDIJ:  cpu time    1.00: real time    1.11
     EDDAV:  cpu time   64.81: real time   71.71
       DOS:  cpu time    0.01: real time    0.02
    --------------------------------------------
      LOOP:  cpu time   65.92: real time   72.93

 eigenvalue-minimisations  :  7680
 total energy-change (2. order) : 0.6829101E+02  (-0.8276681E+03)
 number of electron      20.0000000 magnetization       4.0000000
 augmentation part       20.0000000 magnetization       4.0000000

 Free energy of the ion-electron system (eV)
  ---------------------------------------------------
  alpha Z        PSCENC =        18.50792540
  Ewald energy   TEWEN  =      -719.54704428
  -1/2 Hartree   DENC   =       -48.70767296
  -exchange  EXHF       =         0.00000000
  -V(xc)+E(xc)   XCENC  =        12.22372900
  PAW double counting   =       558.73750985     -526.03148450
  entropy T*S    EENTRO =        -0.00026996
  eigenvalues    EBANDS =        68.93950775
  atomic energy  EATOM  =       704.16881243
  ---------------------------------------------------
  free energy    TOTEN  =        68.29101273 eV

  energy without entropy =       68.29128269  energy(sigma->0) =       68.29114771


--------------------------------------------------------------------------------------------------------




----------------------------------------- Iteration    1(   2)  ---------------------------------------


     EDDAV:  cpu time   78.08: real time   92.34
       DOS:  cpu time    0.01: real time    0.01
    --------------------------------------------
      LOOP:  cpu time   78.15: real time   92.41

 eigenvalue-minimisations  :  9732
 total energy-change (2. order) :-0.8175972E+02  (-0.7790457E+02)
 number of electron      20.0000000 magnetization       4.0000000
 augmentation part       20.0000000 magnetization       4.0000000

 Free energy of the ion-electron system (eV)
  ---------------------------------------------------
  alpha Z        PSCENC =        18.50792540
  Ewald energy   TEWEN  =      -719.54704428
  -1/2 Hartree   DENC   =       -48.70767296
  -exchange  EXHF       =         0.00000000
  -V(xc)+E(xc)   XCENC  =        12.22372900
  PAW double counting   =       558.73750985     -526.03148450
  entropy T*S    EENTRO =        -0.00021547
  eigenvalues    EBANDS =       -12.82026873
  atomic energy  EATOM  =       704.16881243
  ---------------------------------------------------
  free energy    TOTEN  =       -13.46870926 eV

  energy without entropy =      -13.46849379  energy(sigma->0) =      -13.46860152


--------------------------------------------------------------------------------------------------------




----------------------------------------- Iteration    1(   3)  ---------------------------------------


     EDDAV:  cpu time   82.29: real time   93.03
       DOS:  cpu time    0.01: real time    0.01
    --------------------------------------------
      LOOP:  cpu time   82.35: real time   93.09

 eigenvalue-minimisations  :  9564
 total energy-change (2. order) :-0.5312703E+01  (-0.5203442E+01)
 number of electron      20.0000000 magnetization       4.0000000
 augmentation part       20.0000000 magnetization       4.0000000

 Free energy of the ion-electron system (eV)
  ---------------------------------------------------
  alpha Z        PSCENC =        18.50792540
  Ewald energy   TEWEN  =      -719.54704428
  -1/2 Hartree   DENC   =       -48.70767296
  -exchange  EXHF       =         0.00000000
  -V(xc)+E(xc)   XCENC  =        12.22372900
  PAW double counting   =       558.73750985     -526.03148450
  entropy T*S    EENTRO =        -0.00027961
  eigenvalues    EBANDS =       -18.13290801
  atomic energy  EATOM  =       704.16881243
  ---------------------------------------------------
  free energy    TOTEN  =       -18.78141268 eV

  energy without entropy =      -18.78113307  energy(sigma->0) =      -18.78127287


--------------------------------------------------------------------------------------------------------




----------------------------------------- Iteration    1(   4)  ---------------------------------------


     EDDAV:  cpu time  118.21: real time  144.44
       DOS:  cpu time    0.03: real time    0.03
    --------------------------------------------
      LOOP:  cpu time  118.28: real time  144.51

 eigenvalue-minimisations  :  9284
 total energy-change (2. order) :-0.9258365E-01  (-0.9229938E-01)
 number of electron      20.0000000 magnetization       4.0000000
 augmentation part       20.0000000 magnetization       4.0000000

 Free energy of the ion-electron system (eV)
  ---------------------------------------------------
  alpha Z        PSCENC =        18.50792540
  Ewald energy   TEWEN  =      -719.54704428
  -1/2 Hartree   DENC   =       -48.70767296
  -exchange  EXHF       =         0.00000000
  -V(xc)+E(xc)   XCENC  =        12.22372900
  PAW double counting   =       558.73750985     -526.03148450
  entropy T*S    EENTRO =        -0.00027144
  eigenvalues    EBANDS =       -18.22549983
  atomic energy  EATOM  =       704.16881243
  ---------------------------------------------------
  free energy    TOTEN  =       -18.87399633 eV

  energy without entropy =      -18.87372489  energy(sigma->0) =      -18.87386061


--------------------------------------------------------------------------------------------------------




----------------------------------------- Iteration    1(   5)  ---------------------------------------


     EDDAV:  cpu time  101.98: real time  125.44
       DOS:  cpu time    0.01: real time    0.01
    CHARGE:  cpu time    1.71: real time    1.90
    MIXING:  cpu time    0.08: real time    0.08
    --------------------------------------------
      LOOP:  cpu time  103.92: real time  127.59

 eigenvalue-minimisations  :  9576
 total energy-change (2. order) :-0.1827398E-02  (-0.1826752E-02)
 number of electron      19.9999999 magnetization       0.4895798
 augmentation part       -2.1849017 magnetization       0.2069207

 Broyden mixing:
  rms(total) = 0.85930E+00    rms(broyden)= 0.85930E+00
  rms(prec ) = 0.93188E+00
  weight for this iteration     100.00

 Free energy of the ion-electron system (eV)
  ---------------------------------------------------
  alpha Z        PSCENC =        18.50792540
  Ewald energy   TEWEN  =      -719.54704428
  -1/2 Hartree   DENC   =       -48.70767296
  -exchange  EXHF       =         0.00000000
  -V(xc)+E(xc)   XCENC  =        12.22372900
  PAW double counting   =       558.73750985     -526.03148450
  entropy T*S    EENTRO =        -0.00027354
  eigenvalues    EBANDS =       -18.22732514
  atomic energy  EATOM  =       704.16881243
  ---------------------------------------------------
  free energy    TOTEN  =       -18.87582373 eV

  energy without entropy =      -18.87555019  energy(sigma->0) =      -18.87568696


--------------------------------------------------------------------------------------------------------




----------------------------------------- Iteration    1(   6)  ---------------------------------------


    POTLOK:  cpu time    0.21: real time    0.28
    SETDIJ:  cpu time    0.82: real time    1.02
     EDDAV:  cpu time  108.41: real time  124.70
       DOS:  cpu time    0.01: real time    0.01
    CHARGE:  cpu time    1.76: real time    1.79
    MIXING:  cpu time    0.02: real time    0.02
    --------------------------------------------
      LOOP:  cpu time  111.22: real time  127.82

 eigenvalue-minimisations  :  8480
 total energy-change (2. order) :-0.7442216E+00  (-0.4240142E-01)
 number of electron      19.9999999 magnetization      -0.0911751
 augmentation part       -2.1809394 magnetization      -0.1005185

 Broyden mixing:
  rms(total) = 0.41080E+00    rms(broyden)= 0.41079E+00
  rms(prec ) = 0.45822E+00
  weight for this iteration     100.00

 eigenvalues of (default mixing * dielectric matrix)
  average eigenvalue GAMMA=   1.0310
  1.0310

 Free energy of the ion-electron system (eV)
  ---------------------------------------------------
  alpha Z        PSCENC =        18.50792540
  Ewald energy   TEWEN  =      -719.54704428
  -1/2 Hartree   DENC   =       -49.52423752
  -exchange  EXHF       =         0.00000000
  -V(xc)+E(xc)   XCENC  =        12.02558158
  PAW double counting   =       837.84315409     -805.19051347
  entropy T*S    EENTRO =        -0.00009600
  eigenvalues    EBANDS =       -17.90362752
  atomic energy  EATOM  =       704.16881243
  ---------------------------------------------------
  free energy    TOTEN  =       -19.62004530 eV

  energy without entropy =      -19.61994930  energy(sigma->0) =      -19.61999730


--------------------------------------------------------------------------------------------------------




----------------------------------------- Iteration    1(   7)  ---------------------------------------


    POTLOK:  cpu time    0.25: real time    0.26
    SETDIJ:  cpu time    0.88: real time    1.01
     EDDAV:  cpu time   94.02: real time  110.50
       DOS:  cpu time    0.26: real time    0.35
    CHARGE:  cpu time    1.70: real time    1.97
    MIXING:  cpu time    0.00: real time    0.00
    --------------------------------------------
      LOOP:  cpu time   97.11: real time  114.08

 eigenvalue-minimisations  :  8240
 total energy-change (2. order) :-0.5009955E-01  (-0.2709185E-01)
 number of electron      19.9999999 magnetization      -0.0951932
 augmentation part       -2.1824287 magnetization      -0.0925881

 Broyden mixing:
  rms(total) = 0.19245E+00    rms(broyden)= 0.19245E+00
  rms(prec ) = 0.21128E+00
  weight for this iteration     100.00

 eigenvalues of (default mixing * dielectric matrix)
  average eigenvalue GAMMA=   1.1599
  0.7834  1.5364

 Free energy of the ion-electron system (eV)
  ---------------------------------------------------
  alpha Z        PSCENC =        18.50792540
  Ewald energy   TEWEN  =      -719.54704428
  -1/2 Hartree   DENC   =       -50.12767870
  -exchange  EXHF       =         0.00000000
  -V(xc)+E(xc)   XCENC  =        12.10448535
  PAW double counting   =      1101.40701485    -1068.75844919
  entropy T*S    EENTRO =        -0.00008208
  eigenvalues    EBANDS =       -17.42512864
  atomic energy  EATOM  =       704.16881243
  ---------------------------------------------------
  free energy    TOTEN  =       -19.67014485 eV

  energy without entropy =      -19.67006278  energy(sigma->0) =      -19.67010382


--------------------------------------------------------------------------------------------------------




----------------------------------------- Iteration    1(   8)  ---------------------------------------


    POTLOK:  cpu time    0.17: real time    0.19
    SETDIJ:  cpu time    1.04: real time    1.04
     EDDAV:  cpu time  114.00: real time  134.54
       DOS:  cpu time    0.01: real time    0.01
    CHARGE:  cpu time    1.62: real time    1.62
    MIXING:  cpu time    0.03: real time    0.03
    --------------------------------------------
      LOOP:  cpu time  116.88: real time  137.44

 eigenvalue-minimisations  :  9008
 total energy-change (2. order) :-0.8273747E-03  (-0.3327602E-02)
 number of electron      19.9999999 magnetization      -0.0243117
 augmentation part       -2.1842484 magnetization      -0.0247768

 Broyden mixing:
  rms(total) = 0.80366E-01    rms(broyden)= 0.80366E-01
  rms(prec ) = 0.87420E-01
  weight for this iteration     100.00

 eigenvalues of (default mixing * dielectric matrix)
  average eigenvalue GAMMA=   1.2355
  2.1383  0.9319  0.6362

 Free energy of the ion-electron system (eV)
  ---------------------------------------------------
  alpha Z        PSCENC =        18.50792540
  Ewald energy   TEWEN  =      -719.54704428
  -1/2 Hartree   DENC   =       -50.43329029
  -exchange  EXHF       =         0.00000000
  -V(xc)+E(xc)   XCENC  =        12.16696384
  PAW double counting   =      1265.99925755    -1233.36200799
  entropy T*S    EENTRO =        -0.00009383
  eigenvalues    EBANDS =       -17.17149507
  atomic energy  EATOM  =       704.16881243
  ---------------------------------------------------
  free energy    TOTEN  =       -19.67097223 eV

  energy without entropy =      -19.67087840  energy(sigma->0) =      -19.67092531


--------------------------------------------------------------------------------------------------------




----------------------------------------- Iteration    1(   9)  ---------------------------------------


    POTLOK:  cpu time    0.28: real time    0.28
    SETDIJ:  cpu time    1.14: real time    1.14
     EDDAV:  cpu time   93.66: real time  106.27
       DOS:  cpu time    0.01: real time    0.02
    CHARGE:  cpu time    1.42: real time    1.55
    MIXING:  cpu time    0.00: real time    0.00
    --------------------------------------------
      LOOP:  cpu time   96.51: real time  109.26

 eigenvalue-minimisations  :  8624
 total energy-change (2. order) :-0.7194189E-03  (-0.4489457E-03)
 number of electron      19.9999999 magnetization       0.0031690
 augmentation part       -2.1851443 magnetization       0.0041419

 Broyden mixing:
  rms(total) = 0.26033E-01    rms(broyden)= 0.26033E-01
  rms(prec ) = 0.31547E-01
  weight for this iteration     100.00

 eigenvalues of (default mixing * dielectric matrix)
  average eigenvalue GAMMA=   1.2281
  2.3846  1.0482  0.8804  0.5989

 Free energy of the ion-electron system (eV)
  ---------------------------------------------------
  alpha Z        PSCENC =        18.50792540
  Ewald energy   TEWEN  =      -719.54704428
  -1/2 Hartree   DENC   =       -50.50246516
  -exchange  EXHF       =         0.00000000
  -V(xc)+E(xc)   XCENC  =        12.18597732
  PAW double counting   =      1315.25404251    -1282.62062482
  entropy T*S    EENTRO =        -0.00009598
  eigenvalues    EBANDS =       -17.11821906
  atomic energy  EATOM  =       704.16881243
  ---------------------------------------------------
  free energy    TOTEN  =       -19.67169165 eV

  energy without entropy =      -19.67159566  energy(sigma->0) =      -19.67164366


--------------------------------------------------------------------------------------------------------




----------------------------------------- Iteration    1(  10)  ---------------------------------------


    POTLOK:  cpu time    0.18: real time    0.18
    SETDIJ:  cpu time    1.28: real time    1.28
     EDDAV:  cpu time  111.05: real time  135.09
       DOS:  cpu time    0.03: real time    0.03
    CHARGE:  cpu time    3.02: real time    3.96
    MIXING:  cpu time    0.00: real time    0.00
    --------------------------------------------
      LOOP:  cpu time  115.55: real time  140.54

 eigenvalue-minimisations  :  9036
 total energy-change (2. order) :-0.1987974E-03  (-0.1074870E-03)
 number of electron      19.9999999 magnetization       0.0011896
 augmentation part       -2.1856012 magnetization       0.0009910

 Broyden mixing:
  rms(total) = 0.11945E-01    rms(broyden)= 0.11945E-01
  rms(prec ) = 0.14049E-01
  weight for this iteration     100.00

 eigenvalues of (default mixing * dielectric matrix)
  average eigenvalue GAMMA=   1.2179
  2.4444  1.2751  1.0102  0.7529  0.6068

 Free energy of the ion-electron system (eV)
  ---------------------------------------------------
  alpha Z        PSCENC =        18.50792540
  Ewald energy   TEWEN  =      -719.54704428
  -1/2 Hartree   DENC   =       -50.52133030
  -exchange  EXHF       =         0.00000000
  -V(xc)+E(xc)   XCENC  =        12.19328743
  PAW double counting   =      1327.10436888    -1294.47073743
  entropy T*S    EENTRO =        -0.00009588
  eigenvalues    EBANDS =       -17.10707669
  atomic energy  EATOM  =       704.16881243
  ---------------------------------------------------
  free energy    TOTEN  =       -19.67189044 eV

  energy without entropy =      -19.67179457  energy(sigma->0) =      -19.67184251


--------------------------------------------------------------------------------------------------------




----------------------------------------- Iteration    1(  11)  ---------------------------------------


    POTLOK:  cpu time    0.56: real time    0.82
    SETDIJ:  cpu time    0.90: real time    1.09
     EDDAV:  cpu time   99.68: real time  112.89
       DOS:  cpu time    0.01: real time    0.01
    CHARGE:  cpu time    1.97: real time    1.97
    MIXING:  cpu time    0.01: real time    0.01
    --------------------------------------------
      LOOP:  cpu time  103.13: real time  116.79

 eigenvalue-minimisations  :  8800
 total energy-change (2. order) :-0.6559279E-04  (-0.2565825E-04)
 number of electron      19.9999999 magnetization      -0.0009442
 augmentation part       -2.1855813 magnetization      -0.0010489

 Broyden mixing:
  rms(total) = 0.52129E-02    rms(broyden)= 0.52129E-02
  rms(prec ) = 0.59809E-02
  weight for this iteration     100.00

 eigenvalues of (default mixing * dielectric matrix)
  average eigenvalue GAMMA=   1.2940
  2.3314  2.1203  1.1108  0.9335  0.6474  0.6205

 Free energy of the ion-electron system (eV)
  ---------------------------------------------------
  alpha Z        PSCENC =        18.50792540
  Ewald energy   TEWEN  =      -719.54704428
  -1/2 Hartree   DENC   =       -50.53797758
  -exchange  EXHF       =         0.00000000
  -V(xc)+E(xc)   XCENC  =        12.19604017
  PAW double counting   =      1325.58446289    -1292.95087114
  entropy T*S    EENTRO =        -0.00009521
  eigenvalues    EBANDS =       -17.09320872
  atomic energy  EATOM  =       704.16881243
  ---------------------------------------------------
  free energy    TOTEN  =       -19.67195604 eV

  energy without entropy =      -19.67186083  energy(sigma->0) =      -19.67190843


--------------------------------------------------------------------------------------------------------




----------------------------------------- Iteration    1(  12)  ---------------------------------------


    POTLOK:  cpu time    0.87: real time    1.15
    SETDIJ:  cpu time    1.07: real time    1.24
     EDDAV:  cpu time  137.05: real time  166.63
       DOS:  cpu time    0.01: real time    0.01
    CHARGE:  cpu time    3.65: real time    4.38
    MIXING:  cpu time    0.34: real time    0.52
    --------------------------------------------
      LOOP:  cpu time  143.07: real time  174.02

 eigenvalue-minimisations  :  8848
 total energy-change (2. order) :-0.9639392E-05  (-0.2589886E-05)
 number of electron      19.9999999 magnetization      -0.0001290
 augmentation part       -2.1854683 magnetization      -0.0000698

 Broyden mixing:
  rms(total) = 0.17121E-02    rms(broyden)= 0.17121E-02
  rms(prec ) = 0.22890E-02
  weight for this iteration     100.00

 eigenvalues of (default mixing * dielectric matrix)
  average eigenvalue GAMMA=   1.2462
  2.3245  2.3245  1.1136  0.9487  0.6049  0.7318  0.6753

 Free energy of the ion-electron system (eV)
  ---------------------------------------------------
  alpha Z        PSCENC =        18.50792540
  Ewald energy   TEWEN  =      -719.54704428
  -1/2 Hartree   DENC   =       -50.55084241
  -exchange  EXHF       =         0.00000000
  -V(xc)+E(xc)   XCENC  =        12.19684635
  PAW double counting   =      1321.93970223    -1289.30614037
  entropy T*S    EENTRO =        -0.00009508
  eigenvalues    EBANDS =       -17.08112994
  atomic energy  EATOM  =       704.16881243
  ---------------------------------------------------
  free energy    TOTEN  =       -19.67196568 eV

  energy without entropy =      -19.67187060  energy(sigma->0) =      -19.67191814


--------------------------------------------------------------------------------------------------------




----------------------------------------- Iteration    1(  13)  ---------------------------------------


    POTLOK:  cpu time    1.79: real time    2.21
    SETDIJ:  cpu time    1.15: real time    1.71
     EDDAV:  cpu time  103.66: real time  128.06
       DOS:  cpu time    0.01: real time    0.01
    CHARGE:  cpu time    1.58: real time    1.75
    MIXING:  cpu time    0.41: real time    0.51
    --------------------------------------------
      LOOP:  cpu time  108.68: real time  134.33

 eigenvalue-minimisations  :  8472
 total energy-change (2. order) :-0.5869444E-05  (-0.8238408E-06)
 number of electron      19.9999999 magnetization       0.0002241
 augmentation part       -2.1854232 magnetization       0.0002062

 Broyden mixing:
  rms(total) = 0.79392E-03    rms(broyden)= 0.79392E-03
  rms(prec ) = 0.11237E-02
  weight for this iteration     100.00

 eigenvalues of (default mixing * dielectric matrix)
  average eigenvalue GAMMA=   1.2599
  2.3419  2.3419  1.3794  1.1265  0.9359  0.7017  0.6130  0.6390

 Free energy of the ion-electron system (eV)
  ---------------------------------------------------
  alpha Z        PSCENC =        18.50792540
  Ewald energy   TEWEN  =      -719.54704428
  -1/2 Hartree   DENC   =       -50.55956609
  -exchange  EXHF       =         0.00000000
  -V(xc)+E(xc)   XCENC  =        12.19758821
  PAW double counting   =      1320.68487285    -1288.05126038
  entropy T*S    EENTRO =        -0.00009509
  eigenvalues    EBANDS =       -17.07320459
  atomic energy  EATOM  =       704.16881243
  ---------------------------------------------------
  free energy    TOTEN  =       -19.67197155 eV

  energy without entropy =      -19.67187646  energy(sigma->0) =      -19.67192400


--------------------------------------------------------------------------------------------------------




----------------------------------------- Iteration    1(  14)  ---------------------------------------


    POTLOK:  cpu time    0.16: real time    0.24
    SETDIJ:  cpu time    0.63: real time    0.74
     EDDAV:  cpu time   95.88: real time  112.00
       DOS:  cpu time    0.01: real time    0.01
    CHARGE:  cpu time    1.45: real time    1.69
    MIXING:  cpu time    0.01: real time    0.01
    --------------------------------------------
      LOOP:  cpu time   98.14: real time  114.69

 eigenvalue-minimisations  :  8732
 total energy-change (2. order) :-0.2033352E-05  (-0.1816733E-06)
 number of electron      19.9999999 magnetization       0.0000587
 augmentation part       -2.1854059 magnetization       0.0000507

 Broyden mixing:
  rms(total) = 0.31665E-03    rms(broyden)= 0.31665E-03
  rms(prec ) = 0.46993E-03
  weight for this iteration     100.00

 eigenvalues of (default mixing * dielectric matrix)
  average eigenvalue GAMMA=   1.3026
  2.4217  2.4217  1.9618  1.1407  0.9852  0.8658  0.6864  0.6201  0.6201

 Free energy of the ion-electron system (eV)
[...]
      3      -4.2569      1.00000
      4      -4.0904      1.00000
      5       1.2391      1.00000
      6       1.6753      1.00000
      7       2.1240      1.00000
      8       2.5532      1.00000
      9       3.0461      1.00000
     10       3.2780      1.00000
     11       6.1069      0.00000
     12       6.3869      0.00000
     13       6.8323      0.00000
     14       7.0205      0.00000
     15       7.3790      0.00000
     16       7.7294      0.00000

 k-point 106 :       0.0000    0.2727    0.4286
  band No.  band energies     occupation 
      1      -7.5285      1.00000
      2      -7.0363      1.00000
      3      -3.9644      1.00000
      4      -3.4058      1.00000
      5       1.7864      1.00000
      6       2.2404      1.00000
      7       2.5731      1.00000
      8       2.7667      1.00000
      9       3.3712      1.00000
     10       3.7038      1.00000
     11       5.8129      0.00000
     12       6.2088      0.00000
     13       6.3668      0.00000
     14       6.4948      0.00000
     15       7.2838      0.00000
     16       8.1222      0.00000

 k-point 107 :       0.1111    0.2727    0.4286
  band No.  band energies     occupation 
      1      -7.4684      1.00000
      2      -6.9902      1.00000
      3      -3.9719      1.00000
      4      -3.4303      1.00000
      5       1.2964      1.00000
      6       1.9127      1.00000
      7       2.3917      1.00000
      8       3.0969      1.00000
      9       3.6765      1.00000
     10       3.7001      1.00000
     11       5.4309      0.00000
     12       5.4445      0.00000
     13       6.8945      0.00000
     14       7.3659      0.00000
     15       7.4557      0.00000
     16       8.1487      0.00000

 k-point 108 :       0.2222    0.2727    0.4286
  band No.  band energies     occupation 
      1      -7.2991      1.00000
      2      -6.8703      1.00000
      3      -4.0073      1.00000
      4      -3.5254      1.00000
      5       0.7053      1.00000
      6       1.2995      1.00000
      7       2.5688      1.00000
      8       2.7530      1.00000
      9       3.4558      1.00000
     10       3.4684      1.00000
     11       5.4780      0.00000
     12       5.9118      0.00000
     13       7.2247      0.00000
     14       7.6973      0.00000
     15       7.8131      0.00000
     16       8.4375      0.00000

 k-point 109 :       0.3333    0.2727    0.4286
  band No.  band energies     occupation 
      1      -7.0582      1.00000
      2      -6.7380      1.00000
      3      -4.0711      1.00000
      4      -3.7166      1.00000
      5       0.4447      1.00000
      6       1.0432      1.00000
      7       1.9015      1.00000
      8       2.4842      1.00000
      9       2.9259      1.00000
     10       3.4208      1.00000
     11       6.2371      0.00000
     12       6.6634      0.00000
     13       7.3675      0.00000
     14       7.6719      0.00000
     15       7.7943      0.00000
     16       8.5690      0.00000

 k-point 110 :       0.4444    0.2727    0.4286
  band No.  band energies     occupation 
      1      -6.8219      1.00000
      2      -6.6978      1.00000
      3      -4.0821      1.00000
      4      -3.9463      1.00000
      5       0.5924      1.00000
      6       1.0392      1.00000
      7       1.3071      1.00000
      8       1.7641      1.00000
      9       3.1232      1.00000
     10       3.3202      1.00000
     11       6.9357      0.00000
     12       7.0991      0.00000
     13       7.4586      0.00000
     14       7.5601      0.00000
     15       7.7718      0.00000
     16       8.2802      0.00000

 k-point 111 :       0.0000    0.3636    0.4286
  band No.  band energies     occupation 
      1      -7.2644      1.00000
      2      -6.8940      1.00000
      3      -4.2906      1.00000
      4      -3.8837      1.00000
      5       2.0091      1.00000
      6       2.6148      1.00000
      7       2.6832      1.00000
      8       3.0712      1.00000
      9       3.6702      1.00000
     10       3.6794      1.00000
     11       5.1404      0.00000
     12       5.6102      0.00000
     13       5.8657      0.00000
     14       5.9119      0.00000
     15       7.1227      0.00000
     16       7.7527      0.00000

 k-point 112 :       0.1111    0.3636    0.4286
  band No.  band energies     occupation 
      1      -7.2135      1.00000
      2      -6.8571      1.00000
      3      -4.2501      1.00000
      4      -3.8581      1.00000
      5       1.4871      1.00000
      6       2.0954      1.00000
      7       2.6744      1.00000
      8       2.9744      1.00000
      9       3.4497      1.00000
     10       3.6446      1.00000
     11       5.2330      0.00000
     12       5.4682      0.00000
     13       6.5279      0.00000
     14       6.8726      0.00000
     15       7.2035      0.00000
     16       7.8291      0.00000

 k-point 113 :       0.2222    0.3636    0.4286
  band No.  band energies     occupation 
      1      -7.0731      1.00000
      2      -6.7627      1.00000
      3      -4.1441      1.00000
      4      -3.8021      1.00000
      5       0.7204      1.00000
      6       1.3161      1.00000
      7       2.1168      1.00000
      8       2.6390      1.00000
      9       2.9701      1.00000
     10       3.3956      1.00000
     11       6.0069      0.00000
     12       6.4148      0.00000
     13       7.2419      0.00000
     14       7.5274      0.00000
     15       7.5513      0.00000
     16       8.2576      0.00000

 k-point 114 :       0.3333    0.3636    0.4286
  band No.  band energies     occupation 
      1      -6.8819      1.00000
      2      -6.6608      1.00000
      3      -4.0125      1.00000
      4      -3.7690      1.00000
      5       0.2162      1.00000
      6       0.8174      1.00000
      7       1.1946      1.00000
      8       1.8155      1.00000
      9       3.0483      1.00000
     10       3.4056      1.00000
     11       6.9280      0.00000
     12       7.1872      0.00000
     13       7.6571      0.00000
     14       7.7300      0.00000
     15       7.9145      0.00000
     16       8.7421      0.00000

 k-point 115 :       0.4444    0.3636    0.4286
  band No.  band energies     occupation 
      1      -6.7076      1.00000
      2      -6.6256      1.00000
      3      -3.8932      1.00000
      4      -3.8031      1.00000
      5       0.1344      1.00000
      6       0.4871      1.00000
      7       0.7520      1.00000
      8       1.1131      1.00000
      9       3.2272      1.00000
     10       3.3574      1.00000
     11       7.4689      0.00000
     12       7.4905      0.00000
     13       7.7325      0.00000
     14       7.9343      0.00000
     15       8.3742      0.00000
     16       8.7648      0.00000

 k-point 116 :       0.0000    0.4545    0.4286
  band No.  band energies     occupation 
      1      -7.0118      1.00000
      2      -6.8668      1.00000
      3      -4.4179      1.00000
      4      -4.2614      1.00000
      5       2.3050      1.00000
      6       2.5820      1.00000
      7       3.0161      1.00000
      8       3.2361      1.00000
      9       3.7525      1.00000
     10       3.8188      1.00000
     11       4.7819      0.00000
     12       5.0059      0.00000
     13       5.5835      0.00000
     14       5.6160      0.00000
     15       7.1603      0.00000
     16       7.3996      0.00000

 k-point 117 :       0.1111    0.4545    0.4286
  band No.  band energies     occupation 
      1      -6.9721      1.00000
      2      -6.8339      1.00000
      3      -4.3549      1.00000
      4      -4.2054      1.00000
      5       1.8241      1.00000
      6       2.1620      1.00000
      7       2.8383      1.00000
      8       2.9638      1.00000
      9       3.2261      1.00000
     10       3.2521      1.00000
     11       5.5014      0.00000
     12       5.6807      0.00000
     13       6.1690      0.00000
     14       6.3466      0.00000
     15       7.2440      0.00000
     16       7.4887      0.00000

 k-point 118 :       0.2222    0.4545    0.4286
  band No.  band energies     occupation 
      1      -6.8656      1.00000
      2      -6.7485      1.00000
      3      -4.1804      1.00000
      4      -4.0529      1.00000
      5       0.9735      1.00000
      6       1.3566      1.00000
      7       1.7467      1.00000
      8       2.1354      1.00000
      9       3.0943      1.00000
     10       3.2781      1.00000
     11       6.5464      0.00000
     12       6.7728      0.00000
     13       7.1622      0.00000
     14       7.2345      0.00000
     15       7.5440      0.00000
     16       7.9033      0.00000

 k-point 119 :       0.3333    0.4545    0.4286
  band No.  band energies     occupation 
      1      -6.7301      1.00000
      2      -6.6498      1.00000
      3      -3.9457      1.00000
      4      -3.8577      1.00000
      5       0.2816      1.00000
      6       0.6135      1.00000
      7       0.9158      1.00000
      8       1.2557      1.00000
      9       3.2097      1.00000
     10       3.3369      1.00000
     11       7.3817      0.00000
     12       7.3843      0.00000
     13       7.6458      0.00000
     14       7.8294      0.00000
     15       8.2315      0.00000
     16       8.6062      0.00000

 k-point 120 :       0.4444    0.4545    0.4286
  band No.  band energies     occupation 
      1      -6.6226      1.00000
      2      -6.5937      1.00000
      3      -3.7536      1.00000
      4      -3.7218      1.00000
      5      -0.0498      1.00000
      6       0.0803      1.00000
      7       0.5565      1.00000
      8       0.6896      1.00000
      9       3.3146      1.00000
     10       3.3603      1.00000
     11       7.6585      0.00000
     12       7.6740      0.00000
     13       7.9721      0.00000
     14       8.0356      0.00000
     15       8.8014      0.00000
     16       8.9382      0.00000


--------------------------------------------------------------------------------------------------------


 soft charge-density along one line, spin component           1
         0         1         2         3         4         5         6         7         8         9
 total charge-density along one line
 
 soft charge-density along one line, spin component           2
         0         1         2         3         4         5         6         7         8         9
 total charge-density along one line
 
 pseudopotential strength for first ion, spin component:           1
 28.724  35.829   0.000  -0.020   0.000   0.000  -0.031   0.000
 35.829  44.697   0.000  -0.024   0.000   0.000  -0.038   0.000
  0.000   0.000   6.376  -0.000  -0.000   9.860  -0.000  -0.000
 -0.020  -0.024  -0.000   6.373  -0.000  -0.000   9.856  -0.000
  0.000   0.000  -0.000  -0.000   6.376  -0.000  -0.000   9.860
  0.000   0.000   9.860  -0.000  -0.000  15.268  -0.000  -0.000
 -0.031  -0.038  -0.000   9.856  -0.000  -0.000  15.261  -0.000
  0.000   0.000  -0.000  -0.000   9.860  -0.000  -0.000  15.268
 pseudopotential strength for first ion, spin component:           2
 28.724  35.829   0.000  -0.020   0.000   0.000  -0.031   0.000
 35.829  44.697   0.000  -0.024   0.000   0.000  -0.038   0.000
  0.000   0.000   6.376  -0.000  -0.000   9.860  -0.000  -0.000
 -0.020  -0.024  -0.000   6.373  -0.000  -0.000   9.856  -0.000
  0.000   0.000  -0.000  -0.000   6.376  -0.000  -0.000   9.860
  0.000   0.000   9.860  -0.000  -0.000  15.268  -0.000  -0.000
 -0.031  -0.038  -0.000   9.856  -0.000  -0.000  15.261  -0.000
  0.000   0.000  -0.000  -0.000   9.860  -0.000  -0.000  15.268
 total augmentation occupancy for first ion, spin component:           1
  5.766  -3.117   0.000  -1.868   0.000   0.000   0.630  -0.000
 -3.117   2.540  -0.000   1.529   0.000  -0.000  -0.439  -0.000
 -0.000   0.000   1.938   0.000  -0.000  -0.396   0.000   0.000
 -1.868   1.529   0.000   3.183   0.000   0.000  -0.880   0.000
  0.000  -0.000  -0.000   0.000   1.938   0.000   0.000  -0.396
 -0.000  -0.000  -0.396   0.000   0.000   0.100   0.000  -0.000
  0.630  -0.439   0.000  -0.880   0.000   0.000   0.284   0.000
 -0.000   0.000   0.000   0.000  -0.396  -0.000   0.000   0.100
 total augmentation occupancy for first ion, spin component:           2
 -0.000  -0.000   0.000  -0.000   0.000   0.000   0.000   0.000
 -0.000   0.000   0.000   0.000   0.000   0.000  -0.000   0.000
  0.000   0.000   0.000   0.000   0.000  -0.000   0.000   0.000
 -0.000   0.000   0.000   0.000   0.000   0.000  -0.000   0.000
  0.000   0.000   0.000   0.000   0.000   0.000   0.000  -0.000
  0.000   0.000  -0.000   0.000   0.000   0.000   0.000   0.000
  0.000  -0.000   0.000  -0.000   0.000   0.000   0.000   0.000
  0.000   0.000   0.000   0.000  -0.000   0.000   0.000   0.000


------------------------ aborting loop because EDIFF is reached ----------------------------------------


 


 total charge     
 
# of ion     s       p       d       tot
----------------------------------------
  1        1.121   1.225   0.000   2.347
  2        1.121   1.225   0.000   2.347
  3        1.121   1.225   0.000   2.347
  4        1.121   1.225   0.000   2.347
------------------------------------------------
tot        4.486   4.901   0.000   9.387
 


 magnetization (x)
 
# of ion     s       p       d       tot
----------------------------------------
  1       -0.000  -0.000   0.000  -0.000
  2       -0.000  -0.000   0.000  -0.000
  3       -0.000  -0.000   0.000  -0.000
  4       -0.000  -0.000   0.000  -0.000
------------------------------------------------
tot       -0.000  -0.000   0.000  -0.000
 
    CHARGE:  cpu time    1.96: real time    2.13
    FORLOC:  cpu time    0.00: real time    0.00
    FORNL :  cpu time    1.97: real time    2.16
    STRESS:  cpu time    6.64: real time    7.20
    FORCOR:  cpu time    1.25: real time    1.25
    FORHAR:  cpu time    0.21: real time    0.33
    MIXING:  cpu time    0.37: real time    0.37

  FORCE on cell =-STRESS in cart. coord.  units (eV):
  Direction    XX          YY          ZZ          XY          YZ          ZX
  --------------------------------------------------------------------------------------
  Alpha Z    18.50793    18.50793    18.50793
  Ewald    -276.80943  -276.80943  -165.92838    -0.00000    -0.00000     0.00000
  Hartree    10.22571    10.22571    30.11830    -0.00000    -0.00000    -0.00000
  E(xc)     -64.78068   -64.78068   -64.95334     0.00000    -0.00000    -0.00000
  Local     -60.61395   -60.61395  -191.61092    -0.00000     0.00000     0.00000
  n-local   219.36053   219.34500   231.56316     0.38115    -0.26818    -0.27852
  augment   -43.31612   -43.31612   -44.68559     0.00000    -0.00000    -0.00000
  Kinetic   189.60687   189.63400   184.08870     6.33818     1.13167     1.10934
  Fock        0.00000     0.00000     0.00000     0.00000     0.00000     0.00000
  -------------------------------------------------------------------------------------
  Total      -7.81334    -7.81334    -2.90016     0.00000     0.00000     0.00000
  in kB    -144.42987  -144.42987   -53.60958     0.00000     0.00000     0.00000
  external pressure =     -114.16 kB  Pullay stress =        0.00 kB


 VOLUME and BASIS-vectors are now :
 -----------------------------------------------------------------------------
  energy-cutoff  :      550.00
  volume of cell :       86.67
      direct lattice vectors                 reciprocal lattice vectors
     4.061634800  0.000000000  0.000000000     0.246206281  0.000000000  0.000000000
     0.000000000  4.061634800  0.000000000     0.000000000  0.246206281  0.000000000
     0.000000000  0.000000000  5.253980800     0.000000000  0.000000000  0.190331872

  length of vectors
     4.061634800  4.061634800  5.253980800     0.246206281  0.246206281  0.190331872


 FORCES acting on ions
    electron-ion (+dipol)            ewald-force                    non-local-force                 convergence-correction
 -----------------------------------------------------------------------------------------------
   -.402E-14 -.339E-14 -.245E+02   -.933E-15 -.284E-14 0.268E+02   0.520E-17 0.694E-17 -.277E+01   0.382E-14 0.169E-14 -.652E-04
   -.481E-14 -.536E-14 0.245E+02   -.127E-14 0.197E-14 -.268E+02   -.694E-17 0.156E-16 0.277E+01   0.184E-14 0.118E-14 0.652E-04
   0.107E-14 0.295E-14 -.245E+02   0.135E-14 -.206E-14 0.268E+02   0.520E-17 -.104E-16 -.277E+01   0.117E-14 0.126E-14 -.652E-04
   0.400E-14 0.171E-13 0.245E+02   0.995E-15 0.273E-14 -.268E+02   0.000E+00 -.520E-17 0.277E+01   -.767E-15 0.178E-14 0.652E-04
 -----------------------------------------------------------------------------------------------
   -.376E-14 0.113E-13 -.138E-12   0.141E-15 -.196E-15 0.355E-14   0.347E-17 0.694E-17 0.000E+00   0.606E-14 0.590E-14 0.138E-14
 
 
 POSITION                                       TOTAL-FORCE (eV/Angst)
 -----------------------------------------------------------------------------------
      0.00000      0.00000      3.71896        -0.000000      0.000000     -0.484637
      0.00000      0.00000      1.53502         0.000000      0.000000      0.484637
      2.03082      2.03082      1.09197         0.000000     -0.000000     -0.484637
      2.03082      2.03082      4.16201        -0.000000     -0.000000      0.484637
 -----------------------------------------------------------------------------------
    total drift:                                0.000000      0.000000     -0.000000


--------------------------------------------------------------------------------------------------------



  FREE ENERGIE OF THE ION-ELECTRON SYSTEM (eV)
  ---------------------------------------------------
  free  energy   TOTEN  =       -19.67197403 eV

  energy  without entropy=      -19.67187888  energy(sigma->0) =      -19.67192646
 


--------------------------------------------------------------------------------------------------------


    POTLOK:  cpu time    1.06: real time    1.16


--------------------------------------------------------------------------------------------------------


 writing wavefunctions
     LOOP+:  cpu time 1677.90: real time 1985.64
    4ORBIT:  cpu time    0.00: real time    0.00
 


 total charge     
 
# of ion     s       p       d       tot
----------------------------------------
  1        1.121   1.225   0.000   2.347
  2        1.121   1.225   0.000   2.347
  3        1.121   1.225   0.000   2.347
  4        1.121   1.225   0.000   2.347
------------------------------------------------
tot        4.486   4.901   0.000   9.387
 


 magnetization (x)
 
# of ion     s       p       d       tot
----------------------------------------
  1       -0.000  -0.000   0.000  -0.000
  2       -0.000  -0.000   0.000  -0.000
  3       -0.000  -0.000   0.000  -0.000
  4       -0.000  -0.000   0.000  -0.000
------------------------------------------------
tot       -0.000  -0.000   0.000  -0.000
 

 total amount of memory used by VASP on root node    46769. kBytes
========================================================================

   base      :      30000. kBytes
   nonl-proj :       4987. kBytes
   fftplans  :        734. kBytes
   grid      :       1028. kBytes
   one-center:          6. kBytes
   wavefun   :      10014. kBytes
 
  
  
 General timing and accounting informations for this job:
 ========================================================
  
                  Total CPU time used (sec):     1703.265
                            User time (sec):     1702.009
                          System time (sec):        1.256
                         Elapsed time (sec):     2015.637
  
                   Maximum memory used (kb):       63364.
                   Average memory used (kb):           0.
  
                          Minor page faults:        68004
                          Major page faults:            7
                 Voluntary context switches:         1989
