<?xml version="1.0" encoding="ISO-8859-1"?>
<modeling>
 <generator>
  <i name="program" type="string">vasp </i>
  <i name="version" type="string">5.3.3  </i>
  <i name="subversion" type="string">18Dez12 (build Oct 13 2015 19:46:31) complex                          parallel </i>
  <i name="platform" type="string">LinuxIFC </i>
  <i name="date" type="string">2015 12 07 </i>
  <i name="time" type="string">11:45:57 </i>
 </generator>
 <incar>
  <i type="string" name="SYSTEM">  LiAu</i>
  <i type="string" name="PREC">high</i>
  <i type="int" name="NSIM">     2</i>
  <i type="logical" name="ADDGRID"> T  </i>
  <i type="int" name="ISPIN">     2</i>
  <i type="int" name="NELM">   100</i>
  <i type="int" name="NELMIN">     8</i>
  <i type="int" name="IBRION">    -1</i>
  <i name="EDIFF">      0.00000010</i>
  <i type="int" name="NSW">     0</i>
  <i type="int" name="ISIF">     7</i>
  <i name="ENCUT">    550.00000000</i>
  <i type="logical" name="LREAL"> F  </i>
  <i type="int" name="ISMEAR">     0</i>
  <i name="SIGMA">      0.02000000</i>
  <i type="int" name="LMAXMIX">     4</i>
  <i type="logical" name="LORBIT"> F  </i>
  <i type="logical" name="LELF"> T  </i>
  <i type="logical" name="LASPH"> T  </i>
  <i type="int" name="NELM">   100</i>
  <i type="logical" name="LASPH"> T  </i>
 </incar>
 <kpoints>
  <generation param="Gamma">
   <v type="int" name="divisions">       9       11        7 </v>
   <v name="usershift">      0.00000000       0.00000000       0.00000000 </v>
   <v name="genvec1">      0.11111111       0.00000000       0.00000000 </v>
   <v name="genvec2">      0.00000000       0.09090909       0.00000000 </v>
   <v name="genvec3">      0.00000000       0.00000000       0.14285714 </v>
   <v name="shift">      0.00000000       0.00000000       0.00000000 </v>
  </generation>
  <varray name="kpointlist" >
   <v>       0.00000000       0.00000000       0.00000000 </v>
   <v>       0.11111111       0.00000000       0.00000000 </v>
   <v>       0.22222222       0.00000000       0.00000000 </v>
   <v>       0.33333333       0.00000000       0.00000000 </v>
   <v>       0.44444444       0.00000000       0.00000000 </v>
   <v>       0.00000000       0.09090909       0.00000000 </v>
   <v>       0.11111111       0.09090909       0.00000000 </v>
   <v>       0.22222222       0.09090909       0.00000000 </v>
   <v>       0.33333333       0.09090909       0.00000000 </v>
   <v>       0.44444444       0.09090909       0.00000000 </v>
   <v>       0.00000000       0.18181818       0.00000000 </v>
   <v>       0.11111111       0.18181818       0.00000000 </v>
   <v>       0.22222222       0.18181818       0.00000000 </v>
   <v>       0.33333333       0.18181818       0.00000000 </v>
   <v>       0.44444444       0.18181818       0.00000000 </v>
   <v>       0.00000000       0.27272727       0.00000000 </v>
   <v>       0.11111111       0.27272727       0.00000000 </v>
   <v>       0.22222222       0.27272727       0.00000000 </v>
   <v>       0.33333333       0.27272727       0.00000000 </v>
   <v>       0.44444444       0.27272727       0.00000000 </v>
   <v>       0.00000000       0.36363636       0.00000000 </v>
   <v>       0.11111111       0.36363636       0.00000000 </v>
   <v>       0.22222222       0.36363636       0.00000000 </v>
   <v>       0.33333333       0.36363636       0.00000000 </v>
   <v>       0.44444444       0.36363636       0.00000000 </v>
   <v>       0.00000000       0.45454545       0.00000000 </v>
   <v>       0.11111111       0.45454545       0.00000000 </v>
   <v>       0.22222222       0.45454545       0.00000000 </v>
   <v>       0.33333333       0.45454545       0.00000000 </v>
   <v>       0.44444444       0.45454545       0.00000000 </v>
   <v>       0.00000000       0.00000000       0.14285714 </v>
   <v>       0.11111111       0.00000000       0.14285714 </v>
   <v>       0.22222222       0.00000000       0.14285714 </v>
   <v>       0.33333333       0.00000000       0.14285714 </v>
   <v>       0.44444444       0.00000000       0.14285714 </v>
   <v>       0.00000000       0.09090909       0.14285714 </v>
   <v>       0.11111111       0.09090909       0.14285714 </v>
   <v>       0.22222222       0.09090909       0.14285714 </v>
   <v>       0.33333333       0.09090909       0.14285714 </v>
   <v>       0.44444444       0.09090909       0.14285714 </v>
   <v>       0.00000000       0.18181818       0.14285714 </v>
   <v>       0.11111111       0.18181818       0.14285714 </v>
   <v>       0.22222222       0.18181818       0.14285714 </v>
   <v>       0.33333333       0.18181818       0.14285714 </v>
   <v>       0.44444444       0.18181818       0.14285714 </v>
   <v>       0.00000000       0.27272727       0.14285714 </v>
   <v>       0.11111111       0.27272727       0.14285714 </v>
   <v>       0.22222222       0.27272727       0.14285714 </v>
   <v>       0.33333333       0.27272727       0.14285714 </v>
   <v>       0.44444444       0.27272727       0.14285714 </v>
   <v>       0.00000000       0.36363636       0.14285714 </v>
   <v>       0.11111111       0.36363636       0.14285714 </v>
   <v>       0.22222222       0.36363636       0.14285714 </v>
   <v>       0.33333333       0.36363636       0.14285714 </v>
   <v>       0.44444444       0.36363636       0.14285714 </v>
   <v>       0.00000000       0.45454545       0.14285714 </v>
   <v>       0.11111111       0.45454545       0.14285714 </v>
   <v>       0.22222222       0.45454545       0.14285714 </v>
   <v>       0.33333333       0.45454545       0.14285714 </v>
   <v>       0.44444444       0.45454545       0.14285714 </v>
   <v>       0.00000000       0.00000000       0.28571429 </v>
   <v>       0.11111111       0.00000000       0.28571429 </v>
   <v>       0.22222222       0.00000000       0.28571429 </v>
   <v>       0.33333333       0.00000000       0.28571429 </v>
   <v>       0.44444444       0.00000000       0.28571429 </v>
   <v>       0.00000000       0.09090909       0.28571429 </v>
   <v>       0.11111111       0.09090909       0.28571429 </v>
   <v>       0.22222222       0.09090909       0.28571429 </v>
   <v>       0.33333333       0.09090909       0.28571429 </v>
   <v>       0.44444444       0.09090909       0.28571429 </v>
   <v>       0.00000000       0.18181818       0.28571429 </v>
   <v>       0.11111111       0.18181818       0.28571429 </v>
   <v>       0.22222222       0.18181818       0.28571429 </v>
   <v>       0.33333333       0.18181818       0.28571429 </v>
   <v>       0.44444444       0.18181818       0.28571429 </v>
   <v>       0.00000000       0.27272727       0.28571429 </v>
   <v>       0.11111111       0.27272727       0.28571429 </v>
   <v>       0.22222222       0.27272727       0.28571429 </v>
   <v>       0.33333333       0.27272727       0.28571429 </v>
   <v>       0.44444444       0.27272727       0.28571429 </v>
   <v>       0.00000000       0.36363636       0.28571429 </v>
   <v>       0.11111111       0.36363636       0.28571429 </v>
   <v>       0.22222222       0.36363636       0.28571429 </v>
   <v>       0.33333333       0.36363636       0.28571429 </v>
   <v>       0.44444444       0.36363636       0.28571429 </v>
   <v>       0.00000000       0.45454545       0.28571429 </v>
   <v>       0.11111111       0.45454545       0.28571429 </v>
   <v>       0.22222222       0.45454545       0.28571429 </v>
   <v>       0.33333333       0.45454545       0.28571429 </v>
   <v>       0.44444444       0.45454545       0.28571429 </v>
   <v>       0.00000000       0.00000000       0.42857143 </v>
   <v>       0.11111111       0.00000000       0.42857143 </v>
   <v>       0.22222222       0.00000000       0.42857143 </v>
   <v>       0.33333333       0.00000000       0.42857143 </v>
   <v>       0.44444444       0.00000000       0.42857143 </v>
   <v>       0.00000000       0.09090909       0.42857143 </v>
   <v>       0.11111111       0.09090909       0.42857143 </v>
   <v>       0.22222222       0.09090909       0.42857143 </v>
   <v>       0.33333333       0.09090909       0.42857143 </v>
   <v>       0.44444444       0.09090909       0.42857143 </v>
   <v>       0.00000000       0.18181818       0.42857143 </v>
   <v>       0.11111111       0.18181818       0.42857143 </v>
   <v>       0.22222222       0.18181818       0.42857143 </v>
   <v>       0.33333333       0.18181818       0.42857143 </v>
   <v>       0.44444444       0.18181818       0.42857143 </v>
   <v>       0.00000000       0.27272727       0.42857143 </v>
   <v>       0.11111111       0.27272727       0.42857143 </v>
   <v>       0.22222222       0.27272727       0.42857143 </v>
   <v>       0.33333333       0.27272727       0.42857143 </v>
   <v>       0.44444444       0.27272727       0.42857143 </v>
   <v>       0.00000000       0.36363636       0.42857143 </v>
   <v>       0.11111111       0.36363636       0.42857143 </v>
   <v>       0.22222222       0.36363636       0.42857143 </v>
   <v>       0.33333333       0.36363636       0.42857143 </v>
   <v>       0.44444444       0.36363636       0.42857143 </v>
   <v>       0.00000000       0.45454545       0.42857143 </v>
   <v>       0.11111111       0.45454545       0.42857143 </v>
   <v>       0.22222222       0.45454545       0.42857143 </v>
   <v>       0.33333333       0.45454545       0.42857143 </v>
   <v>       0.44444444       0.45454545       0.42857143 </v>
  </varray>
  <varray name="weights" >
   <v>       0.00144300 </v>
   <v>       0.00288600 </v>
   <v>       0.00288600 </v>
   <v>       0.00288600 </v>
   <v>       0.00288600 </v>
   <v>       0.00288600 </v>
   <v>       0.00577201 </v>
   <v>       0.00577201 </v>
   <v>       0.00577201 </v>
   <v>       0.00577201 </v>
   <v>       0.00288600 </v>
   <v>       0.00577201 </v>
   <v>       0.00577201 </v>
   <v>       0.00577201 </v>
   <v>       0.00577201 </v>
   <v>       0.00288600 </v>
   <v>       0.00577201 </v>
   <v>       0.00577201 </v>
   <v>       0.00577201 </v>
   <v>       0.00577201 </v>
   <v>       0.00288600 </v>
   <v>       0.00577201 </v>
   <v>       0.00577201 </v>
   <v>       0.00577201 </v>
   <v>       0.00577201 </v>
   <v>       0.00288600 </v>
   <v>       0.00577201 </v>
   <v>       0.00577201 </v>
   <v>       0.00577201 </v>
   <v>       0.00577201 </v>
   <v>       0.00288600 </v>
   <v>       0.00577201 </v>
   <v>       0.00577201 </v>
   <v>       0.00577201 </v>
   <v>       0.00577201 </v>
   <v>       0.00577201 </v>
   <v>       0.01154401 </v>
   <v>       0.01154401 </v>
   <v>       0.01154401 </v>
   <v>       0.01154401 </v>
   <v>       0.00577201 </v>
   <v>       0.01154401 </v>
   <v>       0.01154401 </v>
   <v>       0.01154401 </v>
   <v>       0.01154401 </v>
   <v>       0.00577201 </v>
   <v>       0.01154401 </v>
   <v>       0.01154401 </v>
   <v>       0.01154401 </v>
   <v>       0.01154401 </v>
   <v>       0.00577201 </v>
   <v>       0.01154401 </v>
   <v>       0.01154401 </v>
   <v>       0.01154401 </v>
   <v>       0.01154401 </v>
   <v>       0.00577201 </v>
   <v>       0.01154401 </v>
   <v>       0.01154401 </v>
   <v>       0.01154401 </v>
   <v>       0.01154401 </v>
   <v>       0.00288600 </v>
   <v>       0.00577201 </v>
   <v>       0.00577201 </v>
   <v>       0.00577201 </v>
   <v>       0.00577201 </v>
   <v>       0.00577201 </v>
   <v>       0.01154401 </v>
   <v>       0.01154401 </v>
   <v>       0.01154401 </v>
   <v>       0.01154401 </v>
   <v>       0.00577201 </v>
   <v>       0.01154401 </v>
   <v>       0.01154401 </v>
   <v>       0.01154401 </v>
   <v>       0.01154401 </v>
   <v>       0.00577201 </v>
   <v>       0.01154401 </v>
   <v>       0.01154401 </v>
   <v>       0.01154401 </v>
   <v>       0.01154401 </v>
   <v>       0.00577201 </v>
   <v>       0.01154401 </v>
   <v>       0.01154401 </v>
   <v>       0.01154401 </v>
   <v>       0.01154401 </v>
   <v>       0.00577201 </v>
   <v>       0.01154401 </v>
   <v>       0.01154401 </v>
   <v>       0.01154401 </v>
   <v>       0.01154401 </v>
   <v>       0.00288600 </v>
   <v>       0.00577201 </v>
   <v>       0.00577201 </v>
   <v>       0.00577201 </v>
   <v>       0.00577201 </v>
   <v>       0.00577201 </v>
   <v>       0.01154401 </v>
   <v>       0.01154401 </v>
   <v>       0.01154401 </v>
   <v>       0.01154401 </v>
   <v>       0.00577201 </v>
   <v>       0.01154401 </v>
   <v>       0.01154401 </v>
   <v>       0.01154401 </v>
   <v>       0.01154401 </v>
   <v>       0.00577201 </v>
   <v>       0.01154401 </v>
   <v>       0.01154401 </v>
   <v>       0.01154401 </v>
   <v>       0.01154401 </v>
   <v>       0.00577201 </v>
   <v>       0.01154401 </v>
   <v>       0.01154401 </v>
   <v>       0.01154401 </v>
   <v>       0.01154401 </v>
   <v>       0.00577201 </v>
   <v>       0.01154401 </v>
   <v>       0.01154401 </v>
   <v>       0.01154401 </v>
   <v>       0.01154401 </v>
  </varray>
 </kpoints>
 <parameters>
  <separator name="general" >
   <i type="string" name="SYSTEM">LiAu</i>
   <i type="logical" name="LCOMPAT"> F  </i>
  </separator>
  <separator name="electronic" >
   <i type="string" name="PREC">high</i>
   <i name="ENMAX">    550.00000000</i>
   <i name="ENAUG">    342.92400000</i>
   <i name="EDIFF">      0.00000010</i>
   <i type="int" name="IALGO">    38</i>
   <i type="int" name="IWAVPR">    10</i>
   <i type="int" name="NBANDS">    16</i>
   <i name="NELECT">     20.00000000</i>
   <i type="int" name="TURBO">     0</i>
   <i type="int" name="IRESTART">     0</i>
   <i type="int" name="NREBOOT">     0</i>
   <i type="int" name="NMIN">     0</i>
   <i name="EREF">      0.00000000</i>
   <separator name="electronic smearing" >
    <i type="int" name="ISMEAR">     0</i>
    <i name="SIGMA">      0.02000000</i>
    <i name="KSPACING">      0.50000000</i>
    <i type="logical" name="KGAMMA"> T  </i>
   </separator>
   <separator name="electronic projectors" >
    <i type="logical" name="LREAL"> F  </i>
    <v name="ROPT">      0.00000000</v>
    <i type="int" name="LMAXPAW">  -100</i>
    <i type="int" name="LMAXMIX">     4</i>
    <i type="logical" name="NLSPLINE"> F  </i>
   </separator>
   <separator name="electronic startup" >
    <i type="int" name="ISTART">     0</i>
    <i type="int" name="ICHARG">     2</i>
    <i type="int" name="INIWAV">     1</i>
   </separator>
   <separator name="electronic spin" >
    <i type="int" name="ISPIN">     2</i>
    <i type="logical" name="LNONCOLLINEAR"> F  </i>
    <v name="MAGMOM">      1.00000000      1.00000000      1.00000000      1.00000000</v>
    <i name="NUPDOWN">     -1.00000000</i>
    <i type="logical" name="LSORBIT"> F  </i>
    <v name="SAXIS">      0.00000000      0.00000000      1.00000000</v>
    <i type="logical" name="LSPIRAL"> F  </i>
    <v name="QSPIRAL">      0.00000000      0.00000000      0.00000000</v>
    <i type="logical" name="LZEROZ"> F  </i>
   </separator>
   <separator name="electronic exchange-correlation" >
    <i type="logical" name="LASPH"> T  </i>
    <i type="logical" name="LMETAGGA"> F  </i>
   </separator>
   <separator name="electronic convergence" >
    <i type="int" name="NELM">   100</i>
    <i type="int" name="NELMDL">    -5</i>
    <i type="int" name="NELMIN">     8</i>
    <i name="ENINI">    550.00000000</i>
    <separator name="electronic convergence detail" >
     <i type="logical" name="LDIAG"> T  </i>
     <i type="logical" name="LSUBROT"> T  </i>
     <i name="WEIMIN">      0.00000000</i>
     <i name="EBREAK">      0.00000000</i>
     <i name="DEPER">      0.30000000</i>
     <i type="int" name="NRMM">     4</i>
     <i name="TIME">      0.40000000</i>
    </separator>
   </separator>
   <separator name="electronic mixer" >
    <i name="AMIX">      0.40000000</i>
    <i name="BMIX">      1.00000000</i>
    <i name="AMIN">      0.10000000</i>
    <i name="AMIX_MAG">      1.60000000</i>
    <i name="BMIX_MAG">      1.00000000</i>
    <separator name="electronic mixer details" >
     <i type="int" name="IMIX">     4</i>
     <i type="int" name="MAXMIX">   -45</i>
     <i name="WC">    100.00000000</i>
     <i type="int" name="INIMIX">     1</i>
     <i type="int" name="MIXPRE">     1</i>
     <i type="int" name="MREMOVE">     5</i>
    </separator>
   </separator>
   <separator name="electronic dipolcorrection" >
    <i type="logical" name="LDIPOL"> F  </i>
    <i type="logical" name="LMONO"> F  </i>
    <i type="int" name="IDIPOL">     0</i>
    <i name="EPSILON">      1.00000000</i>
    <v name="DIPOL">   -100.00000000   -100.00000000   -100.00000000</v>
    <i name="EFIELD">      0.00000000</i>
   </separator>
  </separator>
  <separator name="grids" >
   <i type="int" name="NGX">    32</i>
   <i type="int" name="NGY">    32</i>
   <i type="int" name="NGZ">    40</i>
   <i type="int" name="NGXF">    32</i>
   <i type="int" name="NGYF">    32</i>
   <i type="int" name="NGZF">    42</i>
   <i type="logical" name="ADDGRID"> T  </i>
  </separator>
  <separator name="ionic" >
   <i type="int" name="NSW">     0</i>
   <i type="int" name="IBRION">    -1</i>
   <i type="int" name="ISIF">     7</i>
   <i name="PSTRESS">      0.00000000</i>
   <i name="EDIFFG">      0.00000100</i>
   <i type="int" name="NFREE">     0</i>
   <i name="POTIM">      0.50000000</i>
   <i name="SMASS">     -3.00000000</i>
   <i name="SCALEE">      1.00000000</i>
  </separator>
  <separator name="ionic md" >
   <i name="TEBEG">      0.00010000</i>
   <i name="TEEND">      0.00010000</i>
   <i type="int" name="NBLOCK">     1</i>
   <i type="int" name="KBLOCK">     1</i>
   <i type="int" name="NPACO">   256</i>
   <i name="APACO">     16.00000000</i>
  </separator>
  <separator name="symmetry" >
   <i type="int" name="ISYM">     2</i>
   <i name="SYMPREC">      0.00001000</i>
  </separator>
  <separator name="dos" >
   <i type="logical" name="LORBIT"> F  </i>
   <v name="RWIGS">     -1.00000000</v>
   <i type="int" name="NEDOS">   301</i>
   <i name="EMIN">     10.00000000</i>
   <i name="EMAX">    -10.00000000</i>
   <i name="EFERMI">      0.00000000</i>
  </separator>
  <separator name="writing" >
   <i type="int" name="NWRITE">     2</i>
   <i type="logical" name="LWAVE"> T  </i>
   <i type="logical" name="LCHARG"> T  </i>
   <i type="logical" name="LPARD"> F  </i>
   <i type="logical" name="LVTOT"> F  </i>
   <i type="logical" name="LVHAR"> F  </i>
   <i type="logical" name="LELF"> T  </i>
   <i type="logical" name="LOPTICS"> F  </i>
   <v name="STM">      0.00000000      0.00000000      0.00000000      0.00000000      0.00000000      0.00000000      0.00000000</v>
  </separator>
  <separator name="performance" >
   <i type="int" name="NPAR">     4</i>
   <i type="int" name="NSIM">     2</i>
   <i type="int" name="NBLK">    -1</i>
   <i type="logical" name="LPLANE"> T  </i>
   <i type="logical" name="LSCALAPACK"> F  </i>
   <i type="logical" name="LSCAAWARE"> F  </i>
   <i type="logical" name="LSCALU"> F  </i>
   <i type="logical" name="LASYNC"> F  </i>
   <i type="logical" name="LORBITALREAL"> F  </i>
  </separator>
  <separator name="miscellaneous" >
   <i type="int" name="IDIOT">     3</i>
   <i type="logical" name="LMUSIC"> F  </i>
   <v name="POMASS">     30.97400000</v>
   <v name="DARWINR">      0.00000000</v>
   <v name="DARWINV">      1.00000000</v>
   <i type="logical" name="LCORR"> T  </i>
  </separator>
  <i type="logical" name="GGA_COMPAT"> T  </i>
  <i type="logical" name="LBERRY"> F  </i>
  <i type="int" name="ICORELEVEL">     0</i>
  <i type="logical" name="LDAU"> F  </i>
  <i type="int" name="I_CONSTRAINED_M">     0</i>
  <separator name="electronic exchange-correlation" >
   <i type="string" name="GGA">--</i>
   <i type="int" name="VOSKOWN">     0</i>
   <i type="logical" name="LHFCALC"> F  </i>
   <i type="string" name="PRECFOCK"></i>
   <i type="logical" name="LSYMGRAD"> F  </i>
   <i type="logical" name="LHFONE"> F  </i>
   <i type="logical" name="LRHFCALC"> F  </i>
   <i type="logical" name="LTHOMAS"> F  </i>
   <i type="logical" name="LMODELHF"> F  </i>
   <i name="ENCUT4O">     -1.00000000</i>
   <i type="int" name="EXXOEP">     0</i>
   <i type="int" name="FOURORBIT">     0</i>
   <i name="AEXX">      0.00000000</i>
   <i name="HFALPHA">      0.00000000</i>
   <i name="MCALPHA">      0.00000000</i>
   <i name="ALDAX">      1.00000000</i>
   <i name="AGGAX">      1.00000000</i>
   <i name="ALDAC">      1.00000000</i>
   <i name="AGGAC">      1.00000000</i>
   <i type="int" name="NKREDX">     1</i>
   <i type="int" name="NKREDY">     1</i>
   <i type="int" name="NKREDZ">     1</i>
   <i type="logical" name="SHIFTRED"> F  </i>
   <i type="logical" name="ODDONLY"> F  </i>
   <i type="logical" name="EVENONLY"> F  </i>
   <i type="int" name="LMAXFOCK">     0</i>
   <i type="int" name="NMAXFOCKAE">     0</i>
   <i type="logical" name="LFOCKAEDFT"> F  </i>
   <i name="HFSCREEN">      0.00000000</i>
   <i name="HFSCREENC">      0.00000000</i>
   <i type="int" name="NBANDSGWLOW">     0</i>
  </separator>
  <separator name="vdW DFT" >
   <i type="logical" name="LUSE_VDW"> F  </i>
   <i name="Zab_VDW">     -0.84910000</i>
   <i name="PARAM1">      0.12340000</i>
   <i name="PARAM2">      1.00000000</i>
   <i name="PARAM3">      0.00000000</i>
  </separator>
  <separator name="model GW" >
   <i type="int" name="MODEL_GW">     0</i>
   <i name="MODEL_EPS0">     13.00114145</i>
   <i name="MODEL_ALPHA">      1.00000000</i>
  </separator>
  <separator name="linear response parameters" >
   <i type="logical" name="LEPSILON"> F  </i>
   <i type="logical" name="LRPA"> F  </i>
   <i type="logical" name="LNABLA"> F  </i>
   <i type="logical" name="LVEL"> F  </i>
   <i type="int" name="KINTER">     0</i>
   <i name="CSHIFT">      0.10000000</i>
   <i name="OMEGAMAX">     -1.00000000</i>
   <i name="DEG_THRESHOLD">      0.00200000</i>
  </separator>
  <separator name="orbital magnetization" >
   <i type="logical" name="NUCIND"> F  </i>
   <v name="MAGPOS">      0.00000000      0.00000000      0.00000000</v>
   <i type="logical" name="LNICSALL"> T  </i>
   <i type="logical" name="ORBITALMAG"> F  </i>
   <i type="logical" name="LMAGBLOCH"> F  </i>
   <i type="logical" name="LCHIMAG"> F  </i>
   <i type="logical" name="LGAUGE"> T  </i>
   <i type="int" name="MAGATOM">     0</i>
   <v name="MAGDIPOL">      0.00000000      0.00000000      0.00000000</v>
   <v name="AVECCONST">      0.00000000      0.00000000      0.00000000</v>
  </separator>
  <separator name="response functions" >
   <i type="logical" name="LADDER"> F  </i>
   <i type="logical" name="LFXC"> F  </i>
   <i type="logical" name="LHARTREE"> T  </i>
   <i type="int" name="IBSE">     0</i>
   <i type="logical" name="LTCTE"> F  </i>
   <i type="logical" name="LTETE"> F  </i>
   <i type="logical" name="LTRIPLET"> F  </i>
   <i type="logical" name="LFXCEPS"> F  </i>
   <i type="logical" name="L2ORDER"> F  </i>
   <i type="logical" name="LUSEW"> F  </i>
   <i name="ENCUTGW">     -2.00000000</i>
   <i name="ENCUTGWSOFT">     -2.00000000</i>
   <i name="ENCUTLF">     -1.00000000</i>
   <i type="int" name="LMAXMP2">    -1</i>
   <i name="SCISSOR">      0.00000000</i>
   <i type="int" name="NOMEGA">     0</i>
   <i type="int" name="NOMEGAR">     0</i>
   <i type="int" name="NBANDSGW">    -1</i>
   <i type="int" name="NBANDSO">    -1</i>
   <i type="int" name="NBANDSV">    -1</i>
   <i type="int" name="NELM">   100</i>
   <i type="int" name="DIM">     3</i>
   <i type="int" name="ANTIRES">     0</i>
   <i name="OMEGAMAX">    -30.00000000</i>
   <i name="OMEGATL">   -200.00000000</i>
   <i type="int" name="OMEGAGRID">     0</i>
   <i name="CSHIFT">     -0.10000000</i>
   <i type="logical" name="SELFENERGY"> F  </i>
   <i type="logical" name="LSPECTRAL"> F  </i>
   <i type="logical" name="ODDONLYGW"> F  </i>
   <i type="logical" name="EVENONLYGW"> F  </i>
   <i type="int" name="NKREDLFX">     1</i>
   <i type="int" name="NKREDLFY">     1</i>
   <i type="int" name="NKREDLFZ">     1</i>
   <i type="int" name="MAXMEM">  1800</i>
   <i type="int" name="TELESCOPE">     0</i>
  </separator>
 </parameters>
 <atominfo>
  <atoms>       4 </atoms>
  <types>       1 </types>
  <array name="atoms" >
   <dimension dim="1">ion</dimension>
   <field type="string">element</field>
   <field type="int">atomtype</field>
   <set>
    <rc><c>P </c><c>   1</c></rc>
    <rc><c>P </c><c>   1</c></rc>
    <rc><c>P </c><c>   1</c></rc>
    <rc><c>P </c><c>   1</c></rc>
   </set>
  </array>
  <array name="atomtypes" >
   <dimension dim="1">type</dimension>
   <field type="int">atomspertype</field>
   <field type="string">element</field>
   <field>mass</field>
   <field>valence</field>
   <field type="string">pseudopotential</field>
   <set>
    <rc><c>   4</c><c>P </c><c>     30.97400000</c><c>      5.00000000</c><c>  PAW_PBE P 06Sep2000                   </c></rc>
   </set>
  </array>
 </atominfo>
 <structure name="initialpos" >
  <crystal>
   <varray name="basis" >
    <v>       4.06163480       0.00000000       0.00000000 </v>
    <v>       0.00000000       4.06163480       0.00000000 </v>
    <v>       0.00000000       0.00000000       5.25398080 </v>
   </varray>
   <i name="volume">     86.67427632 </i>
   <varray name="rec_basis" >
    <v>       0.24620628       0.00000000       0.00000000 </v>
    <v>       0.00000000       0.24620628       0.00000000 </v>
    <v>       0.00000000       0.00000000       0.19033187 </v>
   </varray>
  </crystal>
  <varray name="positions" >
   <v>       0.00000000       0.00000000       0.70783650 </v>
   <v>       0.00000000       0.00000000       0.29216350 </v>
   <v>       0.50000000       0.50000000       0.20783650 </v>
   <v>       0.50000000       0.50000000       0.79216350 </v>
  </varray>
 </structure>
 <calculation>
  <scstep>
   <time name="dav">   64.81   71.71</time>
   <time name="total">   65.92   72.93</time>
   <energy>
    <i name="alphaZ">     18.50792540 </i>
    <i name="ewald">   -719.54704428 </i>
    <i name="hartreedc">    -48.70767296 </i>
    <i name="XCdc">     12.22372900 </i>
    <i name="pawpsdc">    558.73750985 </i>
    <i name="pawaedc">   -526.03148450 </i>
    <i name="eentropy">     -0.00026996 </i>
    <i name="bandstr">     68.93950775 </i>
    <i name="atom">    704.16881243 </i>
    <i name="e_fr_energy">     68.29101273 </i>
    <i name="e_wo_entrp">     68.29128269 </i>
    <i name="e_0_energy">     68.29114771 </i>
   </energy>
  </scstep>
  <scstep>
   <time name="dav">   78.08   92.34</time>
   <time name="total">   78.15   92.41</time>
   <energy>
    <i name="e_fr_energy">    -13.46870926 </i>
    <i name="e_wo_entrp">    -13.46849379 </i>
    <i name="e_0_energy">    -13.46860152 </i>
   </energy>
  </scstep>
  <scstep>
   <time name="dav">   82.29   93.03</time>
   <time name="total">   82.35   93.09</time>
   <energy>
    <i name="e_fr_energy">    -18.78141268 </i>
    <i name="e_wo_entrp">    -18.78113307 </i>
    <i name="e_0_energy">    -18.78127287 </i>
   </energy>
  </scstep>
  <scstep>
   <time name="dav">  118.21  144.44</time>
   <time name="total">  118.28  144.51</time>
   <energy>
    <i name="e_fr_energy">    -18.87399633 </i>
    <i name="e_wo_entrp">    -18.87372489 </i>
    <i name="e_0_energy">    -18.87386061 </i>
   </energy>
  </scstep>
  <scstep>
   <time name="dav">  101.98  125.44</time>
   <time name="total">  103.92  127.59</time>
   <energy>
    <i name="e_fr_energy">    -18.87582373 </i>
    <i name="e_wo_entrp">    -18.87555019 </i>
    <i name="e_0_energy">    -18.87568696 </i>
   </energy>
  </scstep>
  <scstep>
   <time name="dav">  108.41  124.70</time>
   <time name="total">  111.22  127.82</time>
   <energy>
    <i name="e_fr_energy">    -19.62004530 </i>
    <i name="e_wo_entrp">    -19.61994930 </i>
    <i name="e_0_energy">    -19.61999730 </i>
   </energy>
  </scstep>
  <scstep>
   <time name="dav">   94.02  110.50</time>
   <time name="total">   97.11  114.08</time>
   <energy>
    <i name="e_fr_energy">    -19.67014485 </i>
    <i name="e_wo_entrp">    -19.67006278 </i>
    <i name="e_0_energy">    -19.67010382 </i>
   </energy>
  </scstep>
  <scstep>
   <time name="dav">  114.00  134.54</time>
   <time name="total">  116.88  137.44</time>
   <energy>
    <i name="e_fr_energy">    -19.67097223 </i>
    <i name="e_wo_entrp">    -19.67087840 </i>
    <i name="e_0_energy">    -19.67092531 </i>
   </energy>
  </scstep>
  <scstep>
   <time name="dav">   93.66  106.27</time>
   <time name="total">   96.51  109.26</time>
   <energy>
    <i name="e_fr_energy">    -19.67169165 </i>
    <i name="e_wo_entrp">    -19.67159566 </i>
    <i name="e_0_energy">    -19.67164366 </i>
   </energy>
  </scstep>
  <scstep>
   <time name="dav">  111.05  135.09</time>
   <time name="total">  115.55  140.54</time>
   <energy>
    <i name="e_fr_energy">    -19.67189044 </i>
    <i name="e_wo_entrp">    -19.67179457 </i>
    <i name="e_0_energy">    -19.67184251 </i>
   </energy>
  </scstep>
  <scstep>
   <time name="dav">   99.68  112.89</time>
   <time name="total">  103.13  116.79</time>
   <energy>
    <i name="e_fr_energy">    -19.67195604 </i>
    <i name="e_wo_entrp">    -19.67186083 </i>
    <i name="e_0_energy">    -19.67190843 </i>
   </energy>
  </scstep>
  <scstep>
   <time name="dav">  137.05  166.63</time>
   <time name="total">  143.07  174.02</time>
   <energy>
    <i name="e_fr_energy">    -19.67196568 </i>
    <i name="e_wo_entrp">    -19.67187060 </i>
    <i name="e_0_energy">    -19.67191814 </i>
   </energy>
  </scstep>
  <scstep>
   <time name="dav">  103.66  128.06</time>
   <time name="total">  108.68  134.33</time>
   <energy>
    <i name="e_fr_energy">    -19.67197155 </i>
    <i name="e_wo_entrp">    -19.67187646 </i>
    <i name="e_0_energy">    -19.67192400 </i>
   </energy>
  </scstep>
  <scstep>
   <time name="dav">   95.88  112.00</time>
   <time name="total">   98.14  114.69</time>
   <energy>
    <i name="e_fr_energy">    -19.67197358 </i>
    <i name="e_wo_entrp">    -19.67187846 </i>
    <i name="e_0_energy">    -19.67192602 </i>
   </energy>
  </scstep>
  <scstep>
   <time name="dav">  103.49  126.33</time>
   <time name="total">  106.04  129.17</time>
   <energy>
    <i name="e_fr_energy">    -19.67197401 </i>
    <i name="e_wo_entrp">    -19.67187886 </i>
    <i name="e_0_energy">    -19.67192644 </i>
   </energy>
  </scstep>
  <scstep>
   <time name="dav">   95.16  115.62</time>
   <time name="total">   96.38  117.16</time>
   <energy>
    <i name="alphaZ">     18.50792540 </i>
    <i name="ewald">   -719.54704428 </i>
    <i name="hartreedc">    -50.56932336 </i>
    <i name="XCdc">     12.19868749 </i>
    <i name="pawpsdc">   1320.25718332 </i>
    <i name="pawaedc">  -1287.62340356 </i>
    <i name="eentropy">     -0.00009515 </i>
    <i name="bandstr">    -17.06471632 </i>
    <i name="atom">    704.16881243 </i>
    <i name="e_fr_energy">    -19.67197403 </i>
    <i name="e_wo_entrp">    -19.67187888 </i>
    <i name="e_0_energy">    -19.67192646 </i>
   </energy>
  </scstep>
  <structure>
   <crystal>
    <varray name="basis" >
     <v>       4.06163480       0.00000000       0.00000000 </v>
     <v>       0.00000000       4.06163480       0.00000000 </v>
     <v>       0.00000000       0.00000000       5.25398080 </v>
    </varray>
    <i name="volume">     86.67427632 </i>
    <varray name="rec_basis" >
     <v>       0.24620628       0.00000000       0.00000000 </v>
     <v>       0.00000000       0.24620628       0.00000000 </v>
     <v>       0.00000000       0.00000000       0.19033187 </v>
    </varray>
   </crystal>
   <varray name="positions" >
    <v>       0.00000000       0.00000000       0.70783650 </v>
    <v>       0.00000000       0.00000000       0.29216350 </v>
    <v>       0.50000000       0.50000000       0.20783650 </v>
    <v>       0.50000000       0.50000000       0.79216350 </v>
   </varray>
  </structure>
  <varray name="forces" >
   <v>      -0.00000000       0.00000000      -0.48463725 </v>
   <v>       0.00000000       0.00000000       0.48463725 </v>
   <v>       0.00000000      -0.00000000      -0.48463725 </v>
   <v>      -0.00000000      -0.00000000       0.48463725 </v>
  </varray>
  <varray name="stress" >
   <v>    -144.42986587       0.00000000       0.00000000 </v>
   <v>       0.00000000    -144.42986587      -0.00000000 </v>
   <v>       0.00000000       0.00000000     -53.60957734 </v>
  </varray>
  <energy>
   <i name="e_fr_energy">    -19.67197403 </i>
   <i name="e_wo_entrp">    -19.67192646 </i>
   <i name="e_0_energy">     -0.00009515 </i>
  </energy>
  <time name="totalsc"> 1677.90 1985.64</time>
  <eigenvalues>
   <array>
    <dimension dim="1">band</dimension>
    <dimension dim="2">kpoint</dimension>
    <dimension dim="3">spin</dimension>
    <field>eigene</field>
    <field>occ</field>
    <set>
     <set comment="spin 1">
      <set comment="kpoint 1">
       <r>   -8.7253    1.0000 </r>
       <r>   -5.5476    1.0000 </r>
       <r>   -4.6397    1.0000 </r>
       <r>    0.0016    1.0000 </r>
       <r>    0.0533    1.0000 </r>
       <r>    0.9565    1.0000 </r>
       <r>    0.9565    1.0000 </r>
       <r>    1.5402    1.0000 </r>
       <r>    3.9434    1.0000 </r>
       <r>    3.9434    1.0000 </r>
       <r>    5.8671    0.0000 </r>
       <r>    5.8671    0.0000 </r>
       <r>    7.6914    0.0000 </r>
       <r>    9.4664    0.0000 </r>
       <r>    9.4664    0.0000 </r>
       <r>   10.6165    0.0000 </r>
      </set>
      <set comment="kpoint 2">
       <r>   -8.6461    1.0000 </r>
       <r>   -5.6492    1.0000 </r>
       <r>   -4.5511    1.0000 </r>
       <r>   -0.2753    1.0000 </r>
       <r>   -0.2070    1.0000 </r>
       <r>    1.0491    1.0000 </r>
       <r>    1.2978    1.0000 </r>
       <r>    1.4066    1.0000 </r>
       <r>    4.0364    1.0000 </r>
       <r>    4.1477    1.0000 </r>
       <r>    5.5932    0.0000 </r>
       <r>    5.7325    0.0000 </r>
       <r>    8.0617    0.0000 </r>
       <r>    9.0469    0.0000 </r>
       <r>    9.2060    0.0000 </r>
       <r>   10.6831    0.0000 </r>
      </set>
      <set comment="kpoint 3">
       <r>   -8.4122    1.0000 </r>
       <r>   -5.9518    1.0000 </r>
       <r>   -4.2877    1.0000 </r>
       <r>   -0.9431    1.0000 </r>
       <r>   -0.5013    1.0000 </r>
       <r>    1.0451    1.0000 </r>
       <r>    1.3252    1.0000 </r>
       <r>    1.8901    1.0000 </r>
       <r>    4.3144    1.0000 </r>
       <r>    4.6428    0.9393 </r>
       <r>    4.8984    0.0000 </r>
       <r>    5.3407    0.0000 </r>
       <r>    8.1359    0.0000 </r>
       <r>    8.5483    0.0000 </r>
       <r>    9.0901    0.0000 </r>
       <r>   10.0090    0.0000 </r>
      </set>
      <set comment="kpoint 4">
       <r>   -8.0371    1.0000 </r>
       <r>   -6.4235    1.0000 </r>
       <r>   -3.8565    1.0000 </r>
       <r>   -1.7536    1.0000 </r>
       <r>   -0.5520    1.0000 </r>
       <r>    0.5554    1.0000 </r>
       <r>    1.7793    1.0000 </r>
       <r>    2.5426    1.0000 </r>
       <r>    4.0286    1.0000 </r>
       <r>    4.7323    0.0000 </r>
       <r>    4.7740    0.0000 </r>
       <r>    5.2846    0.0000 </r>
       <r>    7.1337    0.0000 </r>
       <r>    7.7104    0.0000 </r>
       <r>    9.7696    0.0000 </r>
       <r>   10.4384    0.0000 </r>
      </set>
      <set comment="kpoint 5">
       <r>   -7.5466    1.0000 </r>
       <r>   -6.9853    1.0000 </r>
       <r>   -3.2711    1.0000 </r>
       <r>   -2.5559    1.0000 </r>
       <r>   -0.3441    1.0000 </r>
       <r>    0.0560    1.0000 </r>
       <r>    2.3999    1.0000 </r>
       <r>    3.1647    1.0000 </r>
       <r>    3.2509    1.0000 </r>
       <r>    4.0010    1.0000 </r>
       <r>    5.4082    0.0000 </r>
       <r>    6.0238    0.0000 </r>
       <r>    6.2038    0.0000 </r>
       <r>    6.8433    0.0000 </r>
       <r>    9.9634    0.0000 </r>
       <r>   10.4543    0.0000 </r>
      </set>
      <set comment="kpoint 6">
       <r>   -8.6722    1.0000 </r>
       <r>   -5.6156    1.0000 </r>
       <r>   -4.5804    1.0000 </r>
       <r>   -0.1878    1.0000 </r>
       <r>   -0.1404    1.0000 </r>
       <r>    1.0185    1.0000 </r>
       <r>    1.2032    1.0000 </r>
       <r>    1.4500    1.0000 </r>
       <r>    4.0057    1.0000 </r>
       <r>    4.0832    1.0000 </r>
       <r>    5.6810    0.0000 </r>
       <r>    5.7768    0.0000 </r>
       <r>    7.9409    0.0000 </r>
       <r>    9.1759    0.0000 </r>
       <r>    9.2893    0.0000 </r>
       <r>   10.6592    0.0000 </r>
      </set>
      <set comment="kpoint 7">
       <r>   -8.5938    1.0000 </r>
       <r>   -5.7076    1.0000 </r>
       <r>   -4.4926    1.0000 </r>
       <r>   -0.4140    1.0000 </r>
       <r>   -0.2318    1.0000 </r>
       <r>    0.7036    1.0000 </r>
       <r>    1.3267    1.0000 </r>
       <r>    1.7890    1.0000 </r>
       <r>    3.7277    1.0000 </r>
       <r>    4.6204    0.9991 </r>
       <r>    5.1762    0.0000 </r>
       <r>    5.8647    0.0000 </r>
       <r>    8.2932    0.0000 </r>
       <r>    8.3930    0.0000 </r>
       <r>    9.5409    0.0000 </r>
       <r>   10.6034    0.0000 </r>
      </set>
      <set comment="kpoint 8">
       <r>   -8.3629    1.0000 </r>
       <r>   -5.9856    1.0000 </r>
       <r>   -4.2315    1.0000 </r>
       <r>   -0.9996    1.0000 </r>
       <r>   -0.4474    1.0000 </r>
       <r>    0.7826    1.0000 </r>
       <r>    0.9880    1.0000 </r>
       <r>    2.5036    1.0000 </r>
       <r>    3.7505    1.0000 </r>
       <r>    4.3362    1.0000 </r>
       <r>    5.3155    0.0000 </r>
       <r>    5.6680    0.0000 </r>
       <r>    7.3555    0.0000 </r>
       <r>    9.2069    0.0000 </r>
       <r>    9.2839    0.0000 </r>
       <r>   10.1460    0.0000 </r>
      </set>
      <set comment="kpoint 9">
       <r>   -7.9933    1.0000 </r>
       <r>   -6.4285    1.0000 </r>
       <r>   -3.8049    1.0000 </r>
       <r>   -1.7556    1.0000 </r>
       <r>   -0.5146    1.0000 </r>
       <r>    0.5212    1.0000 </r>
       <r>    1.1769    1.0000 </r>
       <r>    3.2170    1.0000 </r>
       <r>    3.4103    1.0000 </r>
       <r>    4.0750    1.0000 </r>
       <r>    5.2406    0.0000 </r>
       <r>    6.0611    0.0000 </r>
       <r>    6.3260    0.0000 </r>
       <r>    8.5008    0.0000 </r>
       <r>    9.6803    0.0000 </r>
       <r>   10.4879    0.0000 </r>
      </set>
      <set comment="kpoint 10">
       <r>   -7.5124    1.0000 </r>
       <r>   -6.9669    1.0000 </r>
       <r>   -3.2281    1.0000 </r>
       <r>   -2.5286    1.0000 </r>
       <r>   -0.3344    1.0000 </r>
       <r>    0.0427    1.0000 </r>
       <r>    1.7749    1.0000 </r>
       <r>    2.5332    1.0000 </r>
       <r>    3.9337    1.0000 </r>
       <r>    4.6330    0.9873 </r>
       <r>    4.6409    0.9535 </r>
       <r>    5.4039    0.0000 </r>
       <r>    6.8485    0.0000 </r>
       <r>    7.6749    0.0000 </r>
       <r>    9.6986    0.0000 </r>
       <r>   10.1251    0.0000 </r>
      </set>
      <set comment="kpoint 11">
       <r>   -8.5145    1.0000 </r>
       <r>   -5.8194    1.0000 </r>
       <r>   -4.4034    1.0000 </r>
       <r>   -0.6725    1.0000 </r>
       <r>   -0.4169    1.0000 </r>
       <r>    1.1975    1.0000 </r>
       <r>    1.2038    1.0000 </r>
       <r>    1.6658    1.0000 </r>
       <r>    4.1921    1.0000 </r>
       <r>    4.4406    1.0000 </r>
       <r>    5.1840    0.0000 </r>
       <r>    5.5114    0.0000 </r>
       <r>    8.4923    0.0000 </r>
       <r>    8.6519    0.0000 </r>
       <r>    8.8190    0.0000 </r>
       <r>   10.2108    0.0000 </r>
      </set>
      <set comment="kpoint 12">
       <r>   -8.4390    1.0000 </r>
       <r>   -5.8854    1.0000 </r>
       <r>   -4.3179    1.0000 </r>
       <r>   -0.7990    1.0000 </r>
       <r>   -0.3526    1.0000 </r>
       <r>    0.5814    1.0000 </r>
       <r>    1.0992    1.0000 </r>
       <r>    2.4110    1.0000 </r>
       <r>    3.5999    1.0000 </r>
       <r>    4.4970    1.0000 </r>
       <r>    5.2224    0.0000 </r>
       <r>    5.8105    0.0000 </r>
       <r>    7.5330    0.0000 </r>
       <r>    8.9624    0.0000 </r>
       <r>    9.5018    0.0000 </r>
       <r>   10.4796    0.0000 </r>
      </set>
      <set comment="kpoint 13">
       <r>   -8.2172    1.0000 </r>
       <r>   -6.0945    1.0000 </r>
       <r>   -4.0643    1.0000 </r>
       <r>   -1.1841    1.0000 </r>
       <r>   -0.2936    1.0000 </r>
       <r>    0.1875    1.0000 </r>
       <r>    0.8160    1.0000 </r>
       <r>    3.2549    1.0000 </r>
       <r>    3.3181    1.0000 </r>
       <r>    3.5352    1.0000 </r>
       <r>    5.8424    0.0000 </r>
       <r>    6.1525    0.0000 </r>
       <r>    6.3935    0.0000 </r>
       <r>    9.7474    0.0000 </r>
       <r>    9.8627    0.0000 </r>
       <r>   10.4715    0.0000 </r>
      </set>
      <set comment="kpoint 14">
       <r>   -7.8654    1.0000 </r>
       <r>   -6.4527    1.0000 </r>
       <r>   -3.6528    1.0000 </r>
       <r>   -1.7777    1.0000 </r>
       <r>   -0.4230    1.0000 </r>
       <r>    0.4038    1.0000 </r>
       <r>    0.4740    1.0000 </r>
       <r>    2.5953    1.0000 </r>
       <r>    3.3232    1.0000 </r>
       <r>    4.1362    1.0000 </r>
       <r>    5.3375    0.0000 </r>
       <r>    5.6788    0.0000 </r>
       <r>    7.0525    0.0000 </r>
       <r>    9.3972    0.0000 </r>
       <r>    9.8123    0.0000 </r>
       <r>   10.2230    0.0000 </r>
      </set>
      <set comment="kpoint 15">
       <r>   -7.4151    1.0000 </r>
       <r>   -6.9190    1.0000 </r>
       <r>   -3.1037    1.0000 </r>
       <r>   -2.4555    1.0000 </r>
       <r>   -0.3388    1.0000 </r>
       <r>   -0.0256    1.0000 </r>
       <r>    1.0328    1.0000 </r>
       <r>    1.7501    1.0000 </r>
       <r>    3.7447    1.0000 </r>
       <r>    4.4367    1.0000 </r>
       <r>    4.8314    0.0000 </r>
       <r>    5.3567    0.0000 </r>
       <r>    7.9108    0.0000 </r>
       <r>    8.7174    0.0000 </r>
       <r>    9.4665    0.0000 </r>
       <r>    9.6314    0.0000 </r>
      </set>
      <set comment="kpoint 16">
       <r>   -8.2580    1.0000 </r>
       <r>   -6.1492    1.0000 </r>
       <r>   -4.1119    1.0000 </r>
       <r>   -1.3051    1.0000 </r>
       <r>   -0.5584    1.0000 </r>
       <r>    0.8313    1.0000 </r>
       <r>    1.5101    1.0000 </r>
       <r>    2.1801    1.0000 </r>
       <r>    4.5011    1.0000 </r>
       <r>    4.5114    1.0000 </r>
       <r>    4.9209    0.0000 </r>
       <r>    5.0866    0.0000 </r>
       <r>    7.6781    0.0000 </r>
       <r>    8.1787    0.0000 </r>
       <r>    9.7102    0.0000 </r>
       <r>    9.8420    0.0000 </r>
      </set>
      <set comment="kpoint 17">
       <r>   -8.1877    1.0000 </r>
       <r>   -6.1804    1.0000 </r>
       <r>   -4.0306    1.0000 </r>
       <r>   -1.3480    1.0000 </r>
       <r>   -0.4831    1.0000 </r>
       <r>    0.7615    1.0000 </r>
       <r>    0.7713    1.0000 </r>
       <r>    3.0232    1.0000 </r>
       <r>    3.7077    1.0000 </r>
       <r>    3.7341    1.0000 </r>
       <r>    5.5911    0.0000 </r>
       <r>    5.8527    0.0000 </r>
       <r>    6.6588    0.0000 </r>
       <r>    9.0983    0.0000 </r>
       <r>    9.9164    0.0000 </r>
       <r>    9.9663    0.0000 </r>
      </set>
      <set comment="kpoint 18">
       <r>   -7.9828    1.0000 </r>
       <r>   -6.2923    1.0000 </r>
       <r>   -3.7912    1.0000 </r>
       <r>   -1.5141    1.0000 </r>
       <r>   -0.2739    1.0000 </r>
       <r>    0.0331    1.0000 </r>
       <r>    0.5396    1.0000 </r>
       <r>    2.7537    1.0000 </r>
       <r>    3.0364    1.0000 </r>
       <r>    4.0717    1.0000 </r>
       <r>    5.4800    0.0000 </r>
       <r>    5.8200    0.0000 </r>
       <r>    6.9672    0.0000 </r>
       <r>    9.8669    0.0000 </r>
       <r>   10.3250    0.0000 </r>
       <r>   10.4115    0.0000 </r>
      </set>
      <set comment="kpoint 19">
       <r>   -7.6639    1.0000 </r>
       <r>   -6.5195    1.0000 </r>
       <r>   -3.4086    1.0000 </r>
       <r>   -1.8627    1.0000 </r>
       <r>   -0.4259    1.0000 </r>
       <r>    0.1290    1.0000 </r>
       <r>    0.1747    1.0000 </r>
       <r>    1.9077    1.0000 </r>
       <r>    2.7965    1.0000 </r>
       <r>    4.4320    1.0000 </r>
       <r>    4.9303    0.0000 </r>
       <r>    5.7858    0.0000 </r>
       <r>    8.0019    0.0000 </r>
       <r>    9.7189    0.0000 </r>
       <r>   10.0271    0.0000 </r>
       <r>   10.2397    0.0000 </r>
      </set>
      <set comment="kpoint 20">
       <r>   -7.2701    1.0000 </r>
       <r>   -6.8634    1.0000 </r>
       <r>   -2.9137    1.0000 </r>
       <r>   -2.3656    1.0000 </r>
       <r>   -0.4713    1.0000 </r>
       <r>   -0.2219    1.0000 </r>
       <r>    0.6119    1.0000 </r>
       <r>    1.2049    1.0000 </r>
       <r>    3.0081    1.0000 </r>
       <r>    3.5844    1.0000 </r>
       <r>    5.4727    0.0000 </r>
       <r>    5.6997    0.0000 </r>
       <r>    8.9069    0.0000 </r>
       <r>    9.4467    0.0000 </r>
       <r>    9.6293    0.0000 </r>
       <r>    9.7029    0.0000 </r>
      </set>
      <set comment="kpoint 21">
       <r>   -7.9133    1.0000 </r>
       <r>   -6.5718    1.0000 </r>
       <r>   -3.7113    1.0000 </r>
       <r>   -1.9775    1.0000 </r>
       <r>   -0.5189    1.0000 </r>
       <r>    0.4153    1.0000 </r>
       <r>    1.9327    1.0000 </r>
       <r>    2.7302    1.0000 </r>
       <r>    3.7872    1.0000 </r>
       <r>    4.5402    1.0000 </r>
       <r>    4.9300    0.0000 </r>
       <r>    5.4773    0.0000 </r>
       <r>    6.8693    0.0000 </r>
       <r>    7.4725    0.0000 </r>
       <r>    9.7835    0.0000 </r>
       <r>   10.6475    0.0000 </r>
      </set>
      <set comment="kpoint 22">
       <r>   -7.8513    1.0000 </r>
       <r>   -6.5691    1.0000 </r>
       <r>   -3.6373    1.0000 </r>
       <r>   -1.9665    1.0000 </r>
       <r>   -0.4759    1.0000 </r>
       <r>    0.3717    1.0000 </r>
       <r>    1.1481    1.0000 </r>
       <r>    2.9760    1.0000 </r>
       <r>    3.6208    1.0000 </r>
       <r>    4.0173    1.0000 </r>
       <r>    5.2338    0.0000 </r>
       <r>    5.8377    0.0000 </r>
       <r>    6.4973    0.0000 </r>
       <r>    8.5018    0.0000 </r>
       <r>    9.6098    0.0000 </r>
       <r>   10.4281    0.0000 </r>
      </set>
      <set comment="kpoint 23">
       <r>   -7.6740    1.0000 </r>
       <r>   -6.5805    1.0000 </r>
       <r>   -3.4219    1.0000 </r>
       <r>   -1.9647    1.0000 </r>
       <r>   -0.4195    1.0000 </r>
       <r>    0.2009    1.0000 </r>
       <r>    0.3855    1.0000 </r>
       <r>    2.0399    1.0000 </r>
       <r>    3.1116    1.0000 </r>
       <r>    4.6615    0.5900 </r>
       <r>    4.7134    0.0003 </r>
       <r>    5.7179    0.0000 </r>
       <r>    7.7331    0.0000 </r>
       <r>    9.5959    0.0000 </r>
       <r>    9.8074    0.0000 </r>
       <r>    9.8280    0.0000 </r>
      </set>
      <set comment="kpoint 24">
       <r>   -7.4084    1.0000 </r>
       <r>   -6.6544    1.0000 </r>
       <r>   -3.0889    1.0000 </r>
       <r>   -2.0553    1.0000 </r>
       <r>   -0.6056    1.0000 </r>
       <r>   -0.1469    1.0000 </r>
       <r>    0.2762    1.0000 </r>
       <r>    1.3794    1.0000 </r>
       <r>    2.5726    1.0000 </r>
       <r>    3.6562    1.0000 </r>
       <r>    5.4598    0.0000 </r>
       <r>    5.7561    0.0000 </r>
       <r>    8.8510    0.0000 </r>
       <r>    9.4801    0.0000 </r>
       <r>   10.2469    0.0000 </r>
       <r>   10.3681    0.0000 </r>
      </set>
      <set comment="kpoint 25">
       <r>   -7.1047    1.0000 </r>
       <r>   -6.8327    1.0000 </r>
       <r>   -2.6884    1.0000 </r>
       <r>   -2.3084    1.0000 </r>
       <r>   -0.7246    1.0000 </r>
       <r>   -0.5352    1.0000 </r>
       <r>    0.5574    1.0000 </r>
       <r>    0.9299    1.0000 </r>
       <r>    2.5104    1.0000 </r>
       <r>    2.9061    1.0000 </r>
       <r>    5.7123    0.0000 </r>
       <r>    5.7247    0.0000 </r>
       <r>    9.7207    0.0000 </r>
       <r>    9.7381    0.0000 </r>
       <r>   10.2442    0.0000 </r>
       <r>   10.2648    0.0000 </r>
      </set>
      <set comment="kpoint 26">
       <r>   -7.4976    1.0000 </r>
       <r>   -7.0376    1.0000 </r>
       <r>   -3.2110    1.0000 </r>
       <r>   -2.6254    1.0000 </r>
       <r>   -0.3144    1.0000 </r>
       <r>    0.0140    1.0000 </r>
       <r>    2.4639    1.0000 </r>
       <r>    3.0901    1.0000 </r>
       <r>    3.3179    1.0000 </r>
       <r>    3.9323    1.0000 </r>
       <r>    5.4741    0.0000 </r>
       <r>    6.0952    0.0000 </r>
       <r>    6.1254    0.0000 </r>
       <r>    6.7661    0.0000 </r>
       <r>    9.9987    0.0000 </r>
       <r>   10.4045    0.0000 </r>
      </set>
      <set comment="kpoint 27">
       <r>   -7.4487    1.0000 </r>
       <r>   -7.0080    1.0000 </r>
       <r>   -3.1486    1.0000 </r>
       <r>   -2.5822    1.0000 </r>
       <r>   -0.3052    1.0000 </r>
       <r>   -0.0047    1.0000 </r>
       <r>    1.6570    1.0000 </r>
       <r>    2.2735    1.0000 </r>
       <r>    4.2050    1.0000 </r>
       <r>    4.4929    1.0000 </r>
       <r>    4.7570    0.0000 </r>
       <r>    5.1073    0.0000 </r>
       <r>    7.1589    0.0000 </r>
       <r>    7.8349    0.0000 </r>
       <r>    9.6386    0.0000 </r>
       <r>    9.9576    0.0000 </r>
      </set>
      <set comment="kpoint 28">
       <r>   -7.3135    1.0000 </r>
       <r>   -6.9349    1.0000 </r>
       <r>   -2.9729    1.0000 </r>
       <r>   -2.4722    1.0000 </r>
       <r>   -0.3578    1.0000 </r>
       <r>   -0.1263    1.0000 </r>
       <r>    0.8503    1.0000 </r>
       <r>    1.4043    1.0000 </r>
       <r>    3.4401    1.0000 </r>
       <r>    3.9705    1.0000 </r>
       <r>    5.2096    0.0000 </r>
       <r>    5.5360    0.0000 </r>
       <r>    8.4436    0.0000 </r>
       <r>    9.0826    0.0000 </r>
       <r>    9.4736    0.0000 </r>
       <r>    9.4860    0.0000 </r>
      </set>
      <set comment="kpoint 29">
       <r>   -7.1289    1.0000 </r>
       <r>   -6.8645    1.0000 </r>
       <r>   -2.7232    1.0000 </r>
       <r>   -2.3581    1.0000 </r>
       <r>   -0.6340    1.0000 </r>
       <r>   -0.4569    1.0000 </r>
       <r>    0.5862    1.0000 </r>
       <r>    0.9554    1.0000 </r>
       <r>    2.6711    1.0000 </r>
       <r>    3.0521    1.0000 </r>
       <r>    5.6856    0.0000 </r>
       <r>    5.7328    0.0000 </r>
       <r>    9.5549    0.0000 </r>
       <r>    9.6172    0.0000 </r>
       <r>   10.0132    0.0000 </r>
       <r>   10.0537    0.0000 </r>
      </set>
      <set comment="kpoint 30">
       <r>   -6.9556    1.0000 </r>
       <r>   -6.8592    1.0000 </r>
       <r>   -2.4770    1.0000 </r>
       <r>   -2.3387    1.0000 </r>
       <r>   -0.8687    1.0000 </r>
       <r>   -0.7961    1.0000 </r>
       <r>    0.6546    1.0000 </r>
       <r>    0.7808    1.0000 </r>
       <r>    2.3199    1.0000 </r>
       <r>    2.4632    1.0000 </r>
       <r>    5.6882    0.0000 </r>
       <r>    5.7080    0.0000 </r>
       <r>   10.2254    0.0000 </r>
       <r>   10.3035    0.0000 </r>
       <r>   10.5007    0.0000 </r>
       <r>   10.5188    0.0000 </r>
      </set>
      <set comment="kpoint 31">
       <r>   -8.6350    1.0000 </r>
       <r>   -5.9585    1.0000 </r>
       <r>   -4.3260    1.0000 </r>
       <r>   -0.6436    1.0000 </r>
       <r>    0.4136    1.0000 </r>
       <r>    1.0433    1.0000 </r>
       <r>    1.0433    1.0000 </r>
       <r>    2.2700    1.0000 </r>
       <r>    3.6029    1.0000 </r>
       <r>    3.6029    1.0000 </r>
       <r>    6.1824    0.0000 </r>
       <r>    6.1824    0.0000 </r>
       <r>    7.7944    0.0000 </r>
       <r>    9.2600    0.0000 </r>
       <r>    9.2600    0.0000 </r>
       <r>    9.5643    0.0000 </r>
      </set>
      <set comment="kpoint 32">
       <r>   -8.5564    1.0000 </r>
       <r>   -5.9810    1.0000 </r>
       <r>   -4.3361    1.0000 </r>
       <r>   -0.8819    1.0000 </r>
       <r>    0.1355    1.0000 </r>
       <r>    1.1355    1.0000 </r>
       <r>    1.4209    1.0000 </r>
       <r>    2.0951    1.0000 </r>
       <r>    3.6844    1.0000 </r>
       <r>    3.7918    1.0000 </r>
       <r>    5.8977    0.0000 </r>
       <r>    6.0479    0.0000 </r>
       <r>    8.1597    0.0000 </r>
       <r>    8.8377    0.0000 </r>
       <r>    8.9814    0.0000 </r>
       <r>    9.5646    0.0000 </r>
      </set>
      <set comment="kpoint 33">
       <r>   -8.3251    1.0000 </r>
       <r>   -6.1128    1.0000 </r>
       <r>   -4.2942    1.0000 </r>
       <r>   -1.4784    1.0000 </r>
       <r>   -0.1179    1.0000 </r>
       <r>    1.4101    1.0000 </r>
       <r>    1.6754    1.0000 </r>
       <r>    2.0192    1.0000 </r>
       <r>    3.8985    1.0000 </r>
       <r>    4.2024    1.0000 </r>
       <r>    5.2287    0.0000 </r>
       <r>    5.6861    0.0000 </r>
       <r>    7.9236    0.0000 </r>
       <r>    8.2569    0.0000 </r>
       <r>    9.2170    0.0000 </r>
       <r>    9.5173    0.0000 </r>
      </set>
      <set comment="kpoint 34">
       <r>   -7.9556    1.0000 </r>
       <r>   -6.4489    1.0000 </r>
       <r>   -4.0605    1.0000 </r>
       <r>   -2.2235    1.0000 </r>
       <r>   -0.1077    1.0000 </r>
       <r>    1.1417    1.0000 </r>
       <r>    1.8607    1.0000 </r>
       <r>    2.6640    1.0000 </r>
       <r>    3.8945    1.0000 </r>
       <r>    4.4923    1.0000 </r>
       <r>    4.7968    0.0000 </r>
       <r>    5.3693    0.0000 </r>
       <r>    6.9222    0.0000 </r>
       <r>    7.3983    0.0000 </r>
       <r>    9.5199    0.0000 </r>
       <r>   10.5612    0.0000 </r>
      </set>
      <set comment="kpoint 35">
       <r>   -7.4774    1.0000 </r>
       <r>   -6.9443    1.0000 </r>
       <r>   -3.5990    1.0000 </r>
       <r>   -2.9627    1.0000 </r>
       <r>    0.1560    1.0000 </r>
       <r>    0.6020    1.0000 </r>
       <r>    2.4724    1.0000 </r>
       <r>    3.2078    1.0000 </r>
       <r>    3.3535    1.0000 </r>
       <r>    4.0508    1.0000 </r>
       <r>    5.2407    0.0000 </r>
       <r>    5.7805    0.0000 </r>
       <r>    6.0017    0.0000 </r>
       <r>    6.5364    0.0000 </r>
       <r>    9.7537    0.0000 </r>
       <r>   10.2010    0.0000 </r>
      </set>
      <set comment="kpoint 36">
       <r>   -8.5823    1.0000 </r>
       <r>   -5.9722    1.0000 </r>
       <r>   -4.3342    1.0000 </r>
       <r>   -0.8058    1.0000 </r>
       <r>    0.2008    1.0000 </r>
       <r>    1.1050    1.0000 </r>
       <r>    1.3216    1.0000 </r>
       <r>    2.1498    1.0000 </r>
       <r>    3.6578    1.0000 </r>
       <r>    3.7337    1.0000 </r>
       <r>    5.9880    0.0000 </r>
       <r>    6.0916    0.0000 </r>
       <r>    8.0412    0.0000 </r>
       <r>    8.9675    0.0000 </r>
       <r>    9.0693    0.0000 </r>
       <r>    9.5661    0.0000 </r>
      </set>
      <set comment="kpoint 37">
       <r>   -8.5047    1.0000 </r>
       <r>   -5.9971    1.0000 </r>
       <r>   -4.3300    1.0000 </r>
       <r>   -1.0048    1.0000 </r>
       <r>    0.1306    1.0000 </r>
       <r>    0.7926    1.0000 </r>
       <r>    1.8984    1.0000 </r>
       <r>    2.0038    1.0000 </r>
       <r>    3.3875    1.0000 </r>
       <r>    4.1869    1.0000 </r>
       <r>    5.5294    0.0000 </r>
       <r>    6.1857    0.0000 </r>
       <r>    8.1589    0.0000 </r>
       <r>    8.3905    0.0000 </r>
       <r>    9.3383    0.0000 </r>
       <r>    9.5771    0.0000 </r>
      </set>
      <set comment="kpoint 38">
       <r>   -8.2763    1.0000 </r>
       <r>   -6.1284    1.0000 </r>
       <r>   -4.2604    1.0000 </r>
       <r>   -1.5312    1.0000 </r>
       <r>   -0.0654    1.0000 </r>
       <r>    0.8967    1.0000 </r>
       <r>    1.6149    1.0000 </r>
       <r>    2.6054    1.0000 </r>
       <r>    3.3976    1.0000 </r>
       <r>    4.2516    1.0000 </r>
       <r>    5.2734    0.0000 </r>
       <r>    5.9888    0.0000 </r>
       <r>    7.1121    0.0000 </r>
       <r>    8.9435    0.0000 </r>
       <r>    9.4228    0.0000 </r>
       <r>    9.5949    0.0000 </r>
      </set>
      <set comment="kpoint 39">
       <r>   -7.9124    1.0000 </r>
       <r>   -6.4501    1.0000 </r>
       <r>   -4.0129    1.0000 </r>
       <r>   -2.2247    1.0000 </r>
       <r>   -0.0880    1.0000 </r>
       <r>    1.0984    1.0000 </r>
       <r>    1.3014    1.0000 </r>
       <r>    3.3014    1.0000 </r>
       <r>    3.4450    1.0000 </r>
       <r>    3.7315    1.0000 </r>
       <r>    5.4897    0.0000 </r>
       <r>    5.8895    0.0000 </r>
       <r>    6.0932    0.0000 </r>
       <r>    8.2278    0.0000 </r>
       <r>    9.5565    0.0000 </r>
       <r>   10.5607    0.0000 </r>
      </set>
      <set comment="kpoint 40">
       <r>   -7.4438    1.0000 </r>
       <r>   -6.9259    1.0000 </r>
       <r>   -3.5550    1.0000 </r>
       <r>   -2.9343    1.0000 </r>
       <r>    0.1453    1.0000 </r>
       <r>    0.5724    1.0000 </r>
       <r>    1.8941    1.0000 </r>
       <r>    2.6337    1.0000 </r>
       <r>    3.9516    1.0000 </r>
       <r>    4.1266    1.0000 </r>
       <r>    5.0210    0.0000 </r>
       <r>    5.2418    0.0000 </r>
       <r>    6.5892    0.0000 </r>
       <r>    7.3945    0.0000 </r>
       <r>    9.6848    0.0000 </r>
       <r>   10.0815    0.0000 </r>
      </set>
      <set comment="kpoint 41">
       <r>   -8.4262    1.0000 </r>
       <r>   -6.0443    1.0000 </r>
       <r>   -4.3250    1.0000 </r>
       <r>   -1.2339    1.0000 </r>
       <r>   -0.0529    1.0000 </r>
       <r>    1.2894    1.0000 </r>
       <r>    1.7952    1.0000 </r>
       <r>    1.8471    1.0000 </r>
       <r>    3.8118    1.0000 </r>
       <r>    4.0427    1.0000 </r>
       <r>    5.4918    0.0000 </r>
       <r>    5.8371    0.0000 </r>
       <r>    8.2808    0.0000 </r>
       <r>    8.5134    0.0000 </r>
       <r>    8.8049    0.0000 </r>
       <r>    9.5410    0.0000 </r>
      </set>
      <set comment="kpoint 42">
       <r>   -8.3514    1.0000 </r>
       <r>   -6.0712    1.0000 </r>
       <r>   -4.2883    1.0000 </r>
       <r>   -1.3500    1.0000 </r>
       <r>    0.0256    1.0000 </r>
       <r>    0.6862    1.0000 </r>
       <r>    1.7427    1.0000 </r>
       <r>    2.5126    1.0000 </r>
       <r>    3.2572    1.0000 </r>
       <r>    4.3316    1.0000 </r>
       <r>    5.2746    0.0000 </r>
       <r>    6.1359    0.0000 </r>
       <r>    7.2900    0.0000 </r>
       <r>    9.0261    0.0000 </r>
       <r>    9.3252    0.0000 </r>
       <r>    9.6168    0.0000 </r>
      </set>
      <set comment="kpoint 43">
       <r>   -8.1323    1.0000 </r>
       <r>   -6.1901    1.0000 </r>
       <r>   -4.1542    1.0000 </r>
       <r>   -1.7013    1.0000 </r>
       <r>    0.0855    1.0000 </r>
       <r>    0.3262    1.0000 </r>
       <r>    1.4236    1.0000 </r>
       <r>    2.9140    1.0000 </r>
       <r>    3.3953    1.0000 </r>
       <r>    3.6013    1.0000 </r>
       <r>    5.9637    0.0000 </r>
       <r>    6.1613    0.0000 </r>
       <r>    6.1901    0.0000 </r>
       <r>    9.5021    0.0000 </r>
       <r>    9.7684    0.0000 </r>
       <r>    9.9980    0.0000 </r>
      </set>
      <set comment="kpoint 44">
       <r>   -7.7864    1.0000 </r>
       <r>   -6.4632    1.0000 </r>
       <r>   -3.8733    1.0000 </r>
       <r>   -2.2425    1.0000 </r>
       <r>   -0.0911    1.0000 </r>
       <r>    0.7040    1.0000 </r>
       <r>    0.9419    1.0000 </r>
       <r>    2.7262    1.0000 </r>
       <r>    2.9766    1.0000 </r>
       <r>    4.1110    1.0000 </r>
       <r>    5.2117    0.0000 </r>
       <r>    6.0017    0.0000 </r>
       <r>    6.8203    0.0000 </r>
       <r>    9.1381    0.0000 </r>
       <r>    9.7593    0.0000 </r>
       <r>   10.2976    0.0000 </r>
      </set>
      <set comment="kpoint 45">
       <r>   -7.3483    1.0000 </r>
       <r>   -6.8779    1.0000 </r>
       <r>   -3.4281    1.0000 </r>
       <r>   -2.8574    1.0000 </r>
       <r>    0.0473    1.0000 </r>
       <r>    0.4340    1.0000 </r>
       <r>    1.2532    1.0000 </r>
       <r>    1.9344    1.0000 </r>
       <r>    3.3719    1.0000 </r>
       <r>    3.9774    1.0000 </r>
       <r>    5.1644    0.0000 </r>
       <r>    5.6513    0.0000 </r>
       <r>    7.6473    0.0000 </r>
       <r>    8.4404    0.0000 </r>
       <r>    9.6059    0.0000 </r>
       <r>    9.8020    0.0000 </r>
      </set>
      <set comment="kpoint 46">
       <r>   -8.1730    1.0000 </r>
       <r>   -6.2391    1.0000 </r>
       <r>   -4.2173    1.0000 </r>
       <r>   -1.8096    1.0000 </r>
       <r>   -0.1477    1.0000 </r>
       <r>    1.4404    1.0000 </r>
       <r>    1.5937    1.0000 </r>
       <r>    2.3068    1.0000 </r>
       <r>    3.9825    1.0000 </r>
       <r>    4.3893    1.0000 </r>
       <r>    4.9309    0.0000 </r>
       <r>    5.4940    0.0000 </r>
       <r>    7.4655    0.0000 </r>
       <r>    7.8767    0.0000 </r>
       <r>    9.4970    0.0000 </r>
       <r>    9.8426    0.0000 </r>
      </set>
      <set comment="kpoint 47">
       <r>   -8.1034    1.0000 </r>
       <r>   -6.2559    1.0000 </r>
       <r>   -4.1536    1.0000 </r>
       <r>   -1.8498    1.0000 </r>
       <r>   -0.0901    1.0000 </r>
       <r>    0.9035    1.0000 </r>
       <r>    1.3621    1.0000 </r>
       <r>    3.1125    1.0000 </r>
       <r>    3.3460    1.0000 </r>
       <r>    3.7873    1.0000 </r>
       <r>    5.6399    0.0000 </r>
       <r>    5.9345    0.0000 </r>
       <r>    6.4192    0.0000 </r>
       <r>    8.8401    0.0000 </r>
       <r>    9.6186    0.0000 </r>
       <r>   10.1025    0.0000 </r>
      </set>
      <set comment="kpoint 48">
       <r>   -7.9014    1.0000 </r>
       <r>   -6.3303    1.0000 </r>
       <r>   -3.9637    1.0000 </r>
       <r>   -2.0018    1.0000 </r>
       <r>   -0.0558    1.0000 </r>
       <r>    0.3591    1.0000 </r>
       <r>    1.0949    1.0000 </r>
       <r>    2.6945    1.0000 </r>
       <r>    2.8836    1.0000 </r>
       <r>    4.0711    1.0000 </r>
       <r>    5.3278    0.0000 </r>
       <r>    6.1795    0.0000 </r>
       <r>    6.7417    0.0000 </r>
       <r>    9.6339    0.0000 </r>
       <r>    9.9310    0.0000 </r>
       <r>   10.4320    0.0000 </r>
      </set>
      <set comment="kpoint 49">
       <r>   -7.5885    1.0000 </r>
       <r>   -6.5129    1.0000 </r>
       <r>   -3.6519    1.0000 </r>
       <r>   -2.3140    1.0000 </r>
       <r>   -0.3001    1.0000 </r>
       <r>    0.5724    1.0000 </r>
       <r>    0.6203    1.0000 </r>
       <r>    2.1378    1.0000 </r>
       <r>    2.4536    1.0000 </r>
       <r>    3.9795    1.0000 </r>
       <r>    5.2580    0.0000 </r>
       <r>    6.1671    0.0000 </r>
       <r>    7.7567    0.0000 </r>
       <r>    9.7651    0.0000 </r>
       <r>    9.9166    0.0000 </r>
       <r>   10.1411    0.0000 </r>
      </set>
      <set comment="kpoint 50">
       <r>   -7.2064    1.0000 </r>
       <r>   -6.8213    1.0000 </r>
       <r>   -3.2345    1.0000 </r>
       <r>   -2.7584    1.0000 </r>
       <r>   -0.2618    1.0000 </r>
       <r>    0.0939    1.0000 </r>
       <r>    1.0066    1.0000 </r>
       <r>    1.5321    1.0000 </r>
       <r>    2.6574    1.0000 </r>
       <r>    3.2128    1.0000 </r>
       <r>    5.7811    0.0000 </r>
       <r>    6.0560    0.0000 </r>
       <r>    8.6488    0.0000 </r>
       <r>    9.3349    0.0000 </r>
       <r>    9.6803    0.0000 </r>
       <r>    9.8295    0.0000 </r>
      </set>
      <set comment="kpoint 51">
       <r>   -7.8343    1.0000 </r>
       <r>   -6.5733    1.0000 </r>
       <r>   -3.9556    1.0000 </r>
       <r>   -2.4305    1.0000 </r>
       <r>   -0.0585    1.0000 </r>
       <r>    0.9907    1.0000 </r>
       <r>    2.0124    1.0000 </r>
       <r>    2.8478    1.0000 </r>
       <r>    3.7427    1.0000 </r>
       <r>    4.4397    1.0000 </r>
       <r>    4.8586    0.0000 </r>
       <r>    5.4094    0.0000 </r>
       <r>    6.6592    0.0000 </r>
       <r>    7.1582    0.0000 </r>
       <r>    9.5585    0.0000 </r>
       <r>   10.5685    0.0000 </r>
      </set>
      <set comment="kpoint 52">
       <r>   -7.7732    1.0000 </r>
       <r>   -6.5675    1.0000 </r>
       <r>   -3.8842    1.0000 </r>
       <r>   -2.4184    1.0000 </r>
       <r>   -0.0466    1.0000 </r>
       <r>    0.9295    1.0000 </r>
       <r>    1.2873    1.0000 </r>
       <r>    3.0619    1.0000 </r>
       <r>    3.6467    1.0000 </r>
       <r>    3.6805    1.0000 </r>
       <r>    5.5115    0.0000 </r>
       <r>    5.6268    0.0000 </r>
       <r>    6.2739    0.0000 </r>
       <r>    8.2274    0.0000 </r>
       <r>    9.5748    0.0000 </r>
       <r>   10.4066    0.0000 </r>
      </set>
      <set comment="kpoint 53">
       <r>   -7.5988    1.0000 </r>
       <r>   -6.5694    1.0000 </r>
       <r>   -3.6784    1.0000 </r>
       <r>   -2.4096    1.0000 </r>
       <r>   -0.1665    1.0000 </r>
       <r>    0.6771    1.0000 </r>
       <r>    0.7085    1.0000 </r>
       <r>    2.2316    1.0000 </r>
       <r>    2.7641    1.0000 </r>
       <r>    4.1370    1.0000 </r>
       <r>    5.1026    0.0000 </r>
       <r>    6.0630    0.0000 </r>
       <r>    7.4868    0.0000 </r>
       <r>    9.3298    0.0000 </r>
       <r>    9.8520    0.0000 </r>
       <r>    9.9805    0.0000 </r>
      </set>
      <set comment="kpoint 54">
       <r>   -7.3391    1.0000 </r>
       <r>   -6.6278    1.0000 </r>
       <r>   -3.3673    1.0000 </r>
       <r>   -2.4770    1.0000 </r>
       <r>   -0.5093    1.0000 </r>
       <r>    0.1738    1.0000 </r>
       <r>    0.7613    1.0000 </r>
       <r>    1.7207    1.0000 </r>
       <r>    2.2294    1.0000 </r>
       <r>    3.2804    1.0000 </r>
       <r>    5.7672    0.0000 </r>
       <r>    6.1602    0.0000 </r>
       <r>    8.6019    0.0000 </r>
       <r>    9.6563    0.0000 </r>
       <r>   10.0259    0.0000 </r>
       <r>   10.3859    0.0000 </r>
      </set>
      <set comment="kpoint 55">
       <r>   -7.0454    1.0000 </r>
       <r>   -6.7884    1.0000 </r>
       <r>   -3.0077    1.0000 </r>
       <r>   -2.6832    1.0000 </r>
       <r>   -0.6121    1.0000 </r>
       <r>   -0.3457    1.0000 </r>
       <r>    1.0438    1.0000 </r>
       <r>    1.3730    1.0000 </r>
       <r>    2.1657    1.0000 </r>
       <r>    2.5535    1.0000 </r>
       <r>    6.0840    0.0000 </r>
       <r>    6.1353    0.0000 </r>
       <r>    9.4913    0.0000 </r>
       <r>    9.8355    0.0000 </r>
       <r>   10.0518    0.0000 </r>
       <r>   10.3388    0.0000 </r>
      </set>
      <set comment="kpoint 56">
       <r>   -7.4301    1.0000 </r>
       <r>   -6.9930    1.0000 </r>
       <r>   -3.5474    1.0000 </r>
       <r>   -3.0260    1.0000 </r>
       <r>    0.1903    1.0000 </r>
       <r>    0.5562    1.0000 </r>
       <r>    2.5350    1.0000 </r>
       <r>    3.1380    1.0000 </r>
       <r>    3.4178    1.0000 </r>
       <r>    3.9903    1.0000 </r>
       <r>    5.3012    0.0000 </r>
       <r>    5.8417    0.0000 </r>
       <r>    5.9249    0.0000 </r>
       <r>    6.4617    0.0000 </r>
       <r>    9.7869    0.0000 </r>
       <r>   10.1543    0.0000 </r>
      </set>
      <set comment="kpoint 57">
       <r>   -7.3820    1.0000 </r>
       <r>   -6.9635    1.0000 </r>
       <r>   -3.4834    1.0000 </r>
       <r>   -2.9812    1.0000 </r>
       <r>    0.1673    1.0000 </r>
       <r>    0.5109    1.0000 </r>
       <r>    1.7902    1.0000 </r>
       <r>    2.3909    1.0000 </r>
       <r>    4.0273    1.0000 </r>
       <r>    4.1311    1.0000 </r>
       <r>    5.0383    0.0000 </r>
       <r>    5.0993    0.0000 </r>
       <r>    6.8946    0.0000 </r>
       <r>    7.5561    0.0000 </r>
       <r>    9.6797    0.0000 </r>
       <r>    9.9824    0.0000 </r>
      </set>
      <set comment="kpoint 58">
       <r>   -7.2495    1.0000 </r>
       <r>   -6.8905    1.0000 </r>
       <r>   -3.3033    1.0000 </r>
       <r>   -2.8646    1.0000 </r>
       <r>   -0.0413    1.0000 </r>
       <r>    0.2662    1.0000 </r>
       <r>    1.1439    1.0000 </r>
       <r>    1.6533    1.0000 </r>
       <r>    3.0785    1.0000 </r>
       <r>    3.5772    1.0000 </r>
       <r>    5.5044    0.0000 </r>
       <r>    5.8499    0.0000 </r>
       <r>    8.1795    0.0000 </r>
       <r>    8.8045    0.0000 </r>
       <r>    9.6418    0.0000 </r>
       <r>    9.6818    0.0000 </r>
      </set>
      <set comment="kpoint 59">
       <r>   -7.0693    1.0000 </r>
       <r>   -6.8193    1.0000 </r>
       <r>   -3.0479    1.0000 </r>
       <r>   -2.7345    1.0000 </r>
       <r>   -0.4944    1.0000 </r>
       <r>   -0.2425    1.0000 </r>
       <r>    1.0500    1.0000 </r>
       <r>    1.3746    1.0000 </r>
       <r>    2.3247    1.0000 </r>
       <r>    2.6967    1.0000 </r>
       <r>    6.0412    0.0000 </r>
       <r>    6.1267    0.0000 </r>
       <r>    9.3034    0.0000 </r>
       <r>    9.7037    0.0000 </r>
       <r>    9.8780    0.0000 </r>
       <r>   10.1174    0.0000 </r>
      </set>
      <set comment="kpoint 60">
       <r>   -6.9018    1.0000 </r>
       <r>   -6.8108    1.0000 </r>
       <r>   -2.8037    1.0000 </r>
       <r>   -2.6872    1.0000 </r>
       <r>   -0.7758    1.0000 </r>
       <r>   -0.6764    1.0000 </r>
       <r>    1.1618    1.0000 </r>
       <r>    1.2761    1.0000 </r>
       <r>    1.9755    1.0000 </r>
       <r>    2.1174    1.0000 </r>
       <r>    6.1174    0.0000 </r>
       <r>    6.1248    0.0000 </r>
       <r>   10.0696    0.0000 </r>
       <r>   10.2765    0.0000 </r>
       <r>   10.3225    0.0000 </r>
       <r>   10.6990    0.0000 </r>
      </set>
      <set comment="kpoint 61">
       <r>   -8.3668    1.0000 </r>
       <r>   -6.6598    1.0000 </r>
       <r>   -3.8085    1.0000 </r>
       <r>   -1.6014    1.0000 </r>
       <r>    1.3009    1.0000 </r>
       <r>    1.3009    1.0000 </r>
       <r>    1.3659    1.0000 </r>
       <r>    2.9443    1.0000 </r>
       <r>    2.9443    1.0000 </r>
       <r>    3.3408    1.0000 </r>
       <r>    6.7920    0.0000 </r>
       <r>    6.7920    0.0000 </r>
       <r>    8.0079    0.0000 </r>
       <r>    8.1015    0.0000 </r>
       <r>    8.7495    0.0000 </r>
       <r>    8.7495    0.0000 </r>
      </set>
      <set comment="kpoint 62">
       <r>   -8.2907    1.0000 </r>
       <r>   -6.6248    1.0000 </r>
       <r>   -3.9116    1.0000 </r>
       <r>   -1.8129    1.0000 </r>
       <r>    0.9324    1.0000 </r>
       <r>    1.3917    1.0000 </r>
       <r>    1.8653    1.0000 </r>
       <r>    2.9026    1.0000 </r>
       <r>    3.0245    1.0000 </r>
       <r>    3.3844    1.0000 </r>
       <r>    6.4599    0.0000 </r>
       <r>    6.6099    0.0000 </r>
       <r>    8.0198    0.0000 </r>
       <r>    8.3265    0.0000 </r>
       <r>    8.3317    0.0000 </r>
       <r>    8.5484    0.0000 </r>
      </set>
      <set comment="kpoint 63">
       <r>   -8.0682    1.0000 </r>
       <r>   -6.5595    1.0000 </r>
       <r>   -4.1503    1.0000 </r>
       <r>   -2.3504    1.0000 </r>
       <r>    0.7706    1.0000 </r>
       <r>    1.6616    1.0000 </r>
       <r>    2.4394    1.0000 </r>
       <r>    2.6565    1.0000 </r>
       <r>    3.2473    1.0000 </r>
       <r>    3.5997    1.0000 </r>
       <r>    5.7061    0.0000 </r>
       <r>    6.1767    0.0000 </r>
       <r>    7.4137    0.0000 </r>
       <r>    7.6115    0.0000 </r>
       <r>    8.0370    0.0000 </r>
       <r>    9.5183    0.0000 </r>
      </set>
      <set comment="kpoint 64">
       <r>   -7.7188    1.0000 </r>
       <r>   -6.5950    1.0000 </r>
       <r>   -4.3051    1.0000 </r>
       <r>   -3.0246    1.0000 </r>
       <r>    0.8780    1.0000 </r>
       <r>    2.1003    1.0000 </r>
       <r>    2.2080    1.0000 </r>
       <r>    3.0356    1.0000 </r>
       <r>    3.4923    1.0000 </r>
       <r>    3.9324    1.0000 </r>
       <r>    4.9765    0.0000 </r>
       <r>    5.6674    0.0000 </r>
       <r>    6.4228    0.0000 </r>
       <r>    6.7264    0.0000 </r>
       <r>    8.1420    0.0000 </r>
       <r>    9.3249    0.0000 </r>
      </set>
      <set comment="kpoint 65">
       <r>   -7.2863    1.0000 </r>
       <r>   -6.8616    1.0000 </r>
       <r>   -4.1427    1.0000 </r>
       <r>   -3.6694    1.0000 </r>
       <r>    1.2088    1.0000 </r>
       <r>    1.6847    1.0000 </r>
       <r>    2.6789    1.0000 </r>
       <r>    3.2874    1.0000 </r>
       <r>    3.6311    1.0000 </r>
       <r>    4.0497    1.0000 </r>
       <r>    4.9143    0.0000 </r>
       <r>    5.4583    0.0000 </r>
       <r>    5.5381    0.0000 </r>
       <r>    5.9272    0.0000 </r>
       <r>    8.4175    0.0000 </r>
       <r>    8.8389    0.0000 </r>
      </set>
      <set comment="kpoint 66">
       <r>   -8.3158    1.0000 </r>
       <r>   -6.6357    1.0000 </r>
       <r>   -3.8788    1.0000 </r>
       <r>   -1.7451    1.0000 </r>
       <r>    0.9897    1.0000 </r>
       <r>    1.3618    1.0000 </r>
       <r>    1.7642    1.0000 </r>
       <r>    2.9207    1.0000 </r>
       <r>    2.9983    1.0000 </r>
       <r>    3.3665    1.0000 </r>
       <r>    6.5639    0.0000 </r>
       <r>    6.6670    0.0000 </r>
       <r>    8.0172    0.0000 </r>
       <r>    8.3140    0.0000 </r>
       <r>    8.4563    0.0000 </r>
       <r>    8.5514    0.0000 </r>
      </set>
      <set comment="kpoint 67">
       <r>   -8.2407    1.0000 </r>
       <r>   -6.6030    1.0000 </r>
       <r>   -3.9614    1.0000 </r>
       <r>   -1.9232    1.0000 </r>
       <r>    0.9864    1.0000 </r>
       <r>    1.0851    1.0000 </r>
       <r>    2.2596    1.0000 </r>
       <r>    2.7174    1.0000 </r>
       <r>    2.9881    1.0000 </r>
       <r>    3.6145    1.0000 </r>
       <r>    6.0160    0.0000 </r>
       <r>    6.8139    0.0000 </r>
       <r>    7.6005    0.0000 </r>
       <r>    8.0225    0.0000 </r>
       <r>    8.6234    0.0000 </r>
       <r>    8.8934    0.0000 </r>
      </set>
      <set comment="kpoint 68">
       <r>   -8.0212    1.0000 </r>
       <r>   -6.5440    1.0000 </r>
       <r>   -4.1544    1.0000 </r>
       <r>   -2.3977    1.0000 </r>
       <r>    0.7387    1.0000 </r>
       <r>    1.3296    1.0000 </r>
       <r>    2.5410    1.0000 </r>
       <r>    2.8484    1.0000 </r>
       <r>    2.9204    1.0000 </r>
       <r>    3.8982    1.0000 </r>
       <r>    5.4174    0.0000 </r>
       <r>    6.5545    0.0000 </r>
       <r>    6.5674    0.0000 </r>
       <r>    8.0691    0.0000 </r>
       <r>    8.3773    0.0000 </r>
       <r>    9.6719    0.0000 </r>
      </set>
      <set comment="kpoint 69">
       <r>   -7.6777    1.0000 </r>
       <r>   -6.5836    1.0000 </r>
       <r>   -4.2706    1.0000 </r>
       <r>   -3.0226    1.0000 </r>
       <r>    0.7870    1.0000 </r>
       <r>    1.7387    1.0000 </r>
       <r>    2.1213    1.0000 </r>
       <r>    3.0266    1.0000 </r>
       <r>    3.5327    1.0000 </r>
       <r>    3.6295    1.0000 </r>
       <r>    5.4137    0.0000 </r>
       <r>    5.5985    0.0000 </r>
       <r>    6.0894    0.0000 </r>
       <r>    7.6074    0.0000 </r>
       <r>    8.1943    0.0000 </r>
       <r>    9.3119    0.0000 </r>
      </set>
      <set comment="kpoint 70">
       <r>   -7.2548    1.0000 </r>
       <r>   -6.8425    1.0000 </r>
       <r>   -4.0983    1.0000 </r>
       <r>   -3.6379    1.0000 </r>
       <r>    1.0980    1.0000 </r>
       <r>    1.5821    1.0000 </r>
       <r>    2.2881    1.0000 </r>
       <r>    2.9313    1.0000 </r>
       <r>    3.5054    1.0000 </r>
       <r>    3.8479    1.0000 </r>
       <r>    5.0804    0.0000 </r>
       <r>    5.3900    0.0000 </r>
       <r>    6.0680    0.0000 </r>
       <r>    6.7827    0.0000 </r>
       <r>    8.4606    0.0000 </r>
       <r>    8.8596    0.0000 </r>
      </set>
      <set comment="kpoint 71">
       <r>   -8.1652    1.0000 </r>
       <r>   -6.5805    1.0000 </r>
       <r>   -4.0587    1.0000 </r>
       <r>   -2.1291    1.0000 </r>
       <r>    0.7978    1.0000 </r>
       <r>    1.5432    1.0000 </r>
       <r>    2.2278    1.0000 </r>
       <r>    2.7748    1.0000 </r>
       <r>    3.1531    1.0000 </r>
       <r>    3.4998    1.0000 </r>
       <r>    6.0021    0.0000 </r>
       <r>    6.3525    0.0000 </r>
       <r>    7.7698    0.0000 </r>
       <r>    7.9174    0.0000 </r>
       <r>    8.0276    0.0000 </r>
       <r>    9.0856    0.0000 </r>
      </set>
      <set comment="kpoint 72">
       <r>   -8.0931    1.0000 </r>
       <r>   -6.5545    1.0000 </r>
       <r>   -4.0905    1.0000 </r>
       <r>   -2.2338    1.0000 </r>
       <r>    0.7796    1.0000 </r>
       <r>    1.1529    1.0000 </r>
       <r>    2.5450    1.0000 </r>
       <r>    2.8261    1.0000 </r>
       <r>    2.8287    1.0000 </r>
       <r>    3.8946    1.0000 </r>
       <r>    5.5177    0.0000 </r>
       <r>    6.7296    0.0000 </r>
       <r>    6.7638    0.0000 </r>
       <r>    8.0557    0.0000 </r>
       <r>    8.7041    0.0000 </r>
       <r>    9.4087    0.0000 </r>
      </set>
      <set comment="kpoint 73">
       <r>   -7.8833    1.0000 </r>
       <r>   -6.5120    1.0000 </r>
       <r>   -4.1631    1.0000 </r>
       <r>   -2.5489    1.0000 </r>
       <r>    0.4990    1.0000 </r>
       <r>    1.2044    1.0000 </r>
       <r>    2.2190    1.0000 </r>
       <r>    2.4730    1.0000 </r>
       <r>    3.6029    1.0000 </r>
       <r>    3.7137    1.0000 </r>
       <r>    5.6455    0.0000 </r>
       <r>    5.6701    0.0000 </r>
       <r>    6.8797    0.0000 </r>
       <r>    8.1600    0.0000 </r>
       <r>    8.9661    0.0000 </r>
       <r>    9.5332    0.0000 </r>
      </set>
      <set comment="kpoint 74">
       <r>   -7.5582    1.0000 </r>
       <r>   -6.5589    1.0000 </r>
       <r>   -4.1714    1.0000 </r>
       <r>   -3.0287    1.0000 </r>
       <r>    0.4201    1.0000 </r>
       <r>    1.5407    1.0000 </r>
       <r>    1.8166    1.0000 </r>
       <r>    2.3278    1.0000 </r>
       <r>    3.1264    1.0000 </r>
       <r>    3.8683    1.0000 </r>
       <r>    5.1714    0.0000 </r>
       <r>    6.2743    0.0000 </r>
       <r>    6.6761    0.0000 </r>
       <r>    8.3429    0.0000 </r>
       <r>    8.5080    0.0000 </r>
       <r>    9.2734    0.0000 </r>
      </set>
      <set comment="kpoint 75">
       <r>   -7.1653    1.0000 </r>
       <r>   -6.7921    1.0000 </r>
       <r>   -3.9704    1.0000 </r>
       <r>   -3.5511    1.0000 </r>
       <r>    0.6767    1.0000 </r>
       <r>    1.1890    1.0000 </r>
       <r>    2.0005    1.0000 </r>
       <r>    2.5301    1.0000 </r>
       <r>    2.6935    1.0000 </r>
       <r>    3.2885    1.0000 </r>
       <r>    5.6094    0.0000 </r>
       <r>    6.1794    0.0000 </r>
       <r>    7.0581    0.0000 </r>
       <r>    7.7977    0.0000 </r>
       <r>    8.5953    0.0000 </r>
       <r>    8.9289    0.0000 </r>
      </set>
      <set comment="kpoint 76">
       <r>   -7.9232    1.0000 </r>
       <r>   -6.5524    1.0000 </r>
       <r>   -4.2484    1.0000 </r>
       <r>   -2.6509    1.0000 </r>
       <r>    0.7876    1.0000 </r>
       <r>    1.8411    1.0000 </r>
       <r>    2.4706    1.0000 </r>
       <r>    2.7078    1.0000 </r>
       <r>    3.3734    1.0000 </r>
       <r>    3.7477    1.0000 </r>
       <r>    5.3403    0.0000 </r>
       <r>    5.9416    0.0000 </r>
       <r>    6.9587    0.0000 </r>
       <r>    7.2096    0.0000 </r>
       <r>    8.0662    0.0000 </r>
[...]
        <r>  0.1273  0.0013  0.0107  0.0001  0.0000  0.0000  0.0000  0.0000  0.0000 </r>
       </set>
       <set comment="band 2">
        <r>  0.1284  0.0012  0.0116  0.0001  0.0000  0.0000  0.0000  0.0000  0.0000 </r>
        <r>  0.1284  0.0012  0.0116  0.0001  0.0000  0.0000  0.0000  0.0000  0.0000 </r>
        <r>  0.1284  0.0012  0.0116  0.0001  0.0000  0.0000  0.0000  0.0000  0.0000 </r>
        <r>  0.1284  0.0012  0.0116  0.0001  0.0000  0.0000  0.0000  0.0000  0.0000 </r>
       </set>
       <set comment="band 3">
        <r>  0.1132  0.0059  0.0075  0.0003  0.0000  0.0000  0.0000  0.0000  0.0000 </r>
        <r>  0.1132  0.0059  0.0075  0.0003  0.0000  0.0000  0.0000  0.0000  0.0000 </r>
        <r>  0.1132  0.0059  0.0075  0.0003  0.0000  0.0000  0.0000  0.0000  0.0000 </r>
        <r>  0.1132  0.0059  0.0075  0.0003  0.0000  0.0000  0.0000  0.0000  0.0000 </r>
       </set>
       <set comment="band 4">
        <r>  0.1139  0.0059  0.0086  0.0002  0.0000  0.0000  0.0000  0.0000  0.0000 </r>
        <r>  0.1139  0.0059  0.0086  0.0002  0.0000  0.0000  0.0000  0.0000  0.0000 </r>
        <r>  0.1139  0.0059  0.0086  0.0002  0.0000  0.0000  0.0000  0.0000  0.0000 </r>
        <r>  0.1139  0.0059  0.0086  0.0002  0.0000  0.0000  0.0000  0.0000  0.0000 </r>
       </set>
       <set comment="band 5">
        <r>  0.0053  0.0342  0.0050  0.0435  0.0000  0.0000  0.0000  0.0000  0.0000 </r>
        <r>  0.0053  0.0342  0.0050  0.0435  0.0000  0.0000  0.0000  0.0000  0.0000 </r>
        <r>  0.0053  0.0342  0.0050  0.0435  0.0000  0.0000  0.0000  0.0000  0.0000 </r>
        <r>  0.0053  0.0342  0.0050  0.0435  0.0000  0.0000  0.0000  0.0000  0.0000 </r>
       </set>
       <set comment="band 6">
        <r>  0.0028  0.0271  0.0096  0.0506  0.0000  0.0000  0.0000  0.0000  0.0000 </r>
        <r>  0.0028  0.0271  0.0096  0.0506  0.0000  0.0000  0.0000  0.0000  0.0000 </r>
        <r>  0.0028  0.0271  0.0096  0.0506  0.0000  0.0000  0.0000  0.0000  0.0000 </r>
        <r>  0.0028  0.0271  0.0096  0.0506  0.0000  0.0000  0.0000  0.0000  0.0000 </r>
       </set>
       <set comment="band 7">
        <r>  0.0145  0.0487  0.0007  0.0297  0.0000  0.0000  0.0000  0.0000  0.0000 </r>
        <r>  0.0145  0.0487  0.0007  0.0297  0.0000  0.0000  0.0000  0.0000  0.0000 </r>
        <r>  0.0145  0.0487  0.0007  0.0297  0.0000  0.0000  0.0000  0.0000  0.0000 </r>
        <r>  0.0145  0.0487  0.0007  0.0297  0.0000  0.0000  0.0000  0.0000  0.0000 </r>
       </set>
       <set comment="band 8">
        <r>  0.0103  0.0419  0.0073  0.0362  0.0000  0.0000  0.0000  0.0000  0.0000 </r>
        <r>  0.0103  0.0419  0.0073  0.0362  0.0000  0.0000  0.0000  0.0000  0.0000 </r>
        <r>  0.0103  0.0419  0.0073  0.0362  0.0000  0.0000  0.0000  0.0000  0.0000 </r>
        <r>  0.0103  0.0419  0.0073  0.0362  0.0000  0.0000  0.0000  0.0000  0.0000 </r>
       </set>
       <set comment="band 9">
        <r>  0.0160  0.0018  0.0929  0.0135  0.0000  0.0000  0.0000  0.0000  0.0000 </r>
        <r>  0.0160  0.0018  0.0929  0.0135  0.0000  0.0000  0.0000  0.0000  0.0000 </r>
        <r>  0.0160  0.0018  0.0929  0.0135  0.0000  0.0000  0.0000  0.0000  0.0000 </r>
        <r>  0.0160  0.0018  0.0929  0.0135  0.0000  0.0000  0.0000  0.0000  0.0000 </r>
       </set>
       <set comment="band 10">
        <r>  0.0140  0.0015  0.0998  0.0123  0.0000  0.0000  0.0000  0.0000  0.0000 </r>
        <r>  0.0140  0.0015  0.0998  0.0123  0.0000  0.0000  0.0000  0.0000  0.0000 </r>
        <r>  0.0140  0.0015  0.0998  0.0123  0.0000  0.0000  0.0000  0.0000  0.0000 </r>
        <r>  0.0140  0.0015  0.0998  0.0123  0.0000  0.0000  0.0000  0.0000  0.0000 </r>
       </set>
       <set comment="band 11">
        <r>  0.0136  0.0462  0.0085  0.0578  0.0000  0.0000  0.0000  0.0000  0.0000 </r>
        <r>  0.0136  0.0462  0.0085  0.0578  0.0000  0.0000  0.0000  0.0000  0.0000 </r>
        <r>  0.0136  0.0462  0.0085  0.0578  0.0000  0.0000  0.0000  0.0000  0.0000 </r>
        <r>  0.0136  0.0462  0.0085  0.0578  0.0000  0.0000  0.0000  0.0000  0.0000 </r>
       </set>
       <set comment="band 12">
        <r>  0.0224  0.0260  0.0099  0.0582  0.0000  0.0000  0.0000  0.0000  0.0000 </r>
        <r>  0.0224  0.0260  0.0099  0.0582  0.0000  0.0000  0.0000  0.0000  0.0000 </r>
        <r>  0.0224  0.0260  0.0099  0.0582  0.0000  0.0000  0.0000  0.0000  0.0000 </r>
        <r>  0.0224  0.0260  0.0099  0.0582  0.0000  0.0000  0.0000  0.0000  0.0000 </r>
       </set>
       <set comment="band 13">
        <r>  0.0132  0.0649  0.0093  0.0403  0.0000  0.0000  0.0000  0.0000  0.0000 </r>
        <r>  0.0132  0.0649  0.0093  0.0403  0.0000  0.0000  0.0000  0.0000  0.0000 </r>
        <r>  0.0132  0.0649  0.0093  0.0403  0.0000  0.0000  0.0000  0.0000  0.0000 </r>
        <r>  0.0132  0.0649  0.0093  0.0403  0.0000  0.0000  0.0000  0.0000  0.0000 </r>
       </set>
       <set comment="band 14">
        <r>  0.0233  0.0197  0.0380  0.0220  0.0000  0.0000  0.0000  0.0000  0.0000 </r>
        <r>  0.0233  0.0197  0.0380  0.0220  0.0000  0.0000  0.0000  0.0000  0.0000 </r>
        <r>  0.0233  0.0197  0.0380  0.0220  0.0000  0.0000  0.0000  0.0000  0.0000 </r>
        <r>  0.0233  0.0197  0.0380  0.0220  0.0000  0.0000  0.0000  0.0000  0.0000 </r>
       </set>
       <set comment="band 15">
        <r>  0.0099  0.0177  0.0579  0.0177  0.0000  0.0000  0.0000  0.0000  0.0000 </r>
        <r>  0.0099  0.0177  0.0579  0.0177  0.0000  0.0000  0.0000  0.0000  0.0000 </r>
        <r>  0.0099  0.0177  0.0579  0.0177  0.0000  0.0000  0.0000  0.0000  0.0000 </r>
        <r>  0.0099  0.0177  0.0579  0.0177  0.0000  0.0000  0.0000  0.0000  0.0000 </r>
       </set>
       <set comment="band 16">
        <r>  0.0075  0.0426  0.0354  0.0366  0.0000  0.0000  0.0000  0.0000  0.0000 </r>
        <r>  0.0075  0.0426  0.0354  0.0366  0.0000  0.0000  0.0000  0.0000  0.0000 </r>
        <r>  0.0075  0.0426  0.0354  0.0366  0.0000  0.0000  0.0000  0.0000  0.0000 </r>
        <r>  0.0075  0.0426  0.0354  0.0366  0.0000  0.0000  0.0000  0.0000  0.0000 </r>
       </set>
      </set>
      <set comment="kpoint 119">
       <set comment="band 1">
        <r>  0.1300  0.0006  0.0113  0.0001  0.0000  0.0000  0.0000  0.0000  0.0000 </r>
        <r>  0.1300  0.0006  0.0113  0.0001  0.0000  0.0000  0.0000  0.0000  0.0000 </r>
        <r>  0.1300  0.0006  0.0113  0.0001  0.0000  0.0000  0.0000  0.0000  0.0000 </r>
        <r>  0.1300  0.0006  0.0113  0.0001  0.0000  0.0000  0.0000  0.0000  0.0000 </r>
       </set>
       <set comment="band 2">
        <r>  0.1309  0.0005  0.0119  0.0001  0.0000  0.0000  0.0000  0.0000  0.0000 </r>
        <r>  0.1309  0.0005  0.0119  0.0001  0.0000  0.0000  0.0000  0.0000  0.0000 </r>
        <r>  0.1309  0.0005  0.0119  0.0001  0.0000  0.0000  0.0000  0.0000  0.0000 </r>
        <r>  0.1309  0.0005  0.0119  0.0001  0.0000  0.0000  0.0000  0.0000  0.0000 </r>
       </set>
       <set comment="band 3">
        <r>  0.1196  0.0031  0.0080  0.0004  0.0000  0.0000  0.0000  0.0000  0.0000 </r>
        <r>  0.1196  0.0031  0.0080  0.0004  0.0000  0.0000  0.0000  0.0000  0.0000 </r>
        <r>  0.1196  0.0031  0.0080  0.0004  0.0000  0.0000  0.0000  0.0000  0.0000 </r>
        <r>  0.1196  0.0031  0.0080  0.0004  0.0000  0.0000  0.0000  0.0000  0.0000 </r>
       </set>
       <set comment="band 4">
        <r>  0.1201  0.0031  0.0088  0.0003  0.0000  0.0000  0.0000  0.0000  0.0000 </r>
        <r>  0.1201  0.0031  0.0088  0.0003  0.0000  0.0000  0.0000  0.0000  0.0000 </r>
        <r>  0.1201  0.0031  0.0088  0.0003  0.0000  0.0000  0.0000  0.0000  0.0000 </r>
        <r>  0.1201  0.0031  0.0088  0.0003  0.0000  0.0000  0.0000  0.0000  0.0000 </r>
       </set>
       <set comment="band 5">
        <r>  0.0024  0.0364  0.0009  0.0416  0.0000  0.0000  0.0000  0.0000  0.0000 </r>
        <r>  0.0024  0.0364  0.0009  0.0416  0.0000  0.0000  0.0000  0.0000  0.0000 </r>
        <r>  0.0024  0.0364  0.0009  0.0416  0.0000  0.0000  0.0000  0.0000  0.0000 </r>
        <r>  0.0024  0.0364  0.0009  0.0416  0.0000  0.0000  0.0000  0.0000  0.0000 </r>
       </set>
       <set comment="band 6">
        <r>  0.0052  0.0321  0.0025  0.0450  0.0000  0.0000  0.0000  0.0000  0.0000 </r>
        <r>  0.0052  0.0321  0.0025  0.0450  0.0000  0.0000  0.0000  0.0000  0.0000 </r>
        <r>  0.0052  0.0321  0.0025  0.0450  0.0000  0.0000  0.0000  0.0000  0.0000 </r>
        <r>  0.0052  0.0321  0.0025  0.0450  0.0000  0.0000  0.0000  0.0000  0.0000 </r>
       </set>
       <set comment="band 7">
        <r>  0.0045  0.0445  0.0005  0.0350  0.0000  0.0000  0.0000  0.0000  0.0000 </r>
        <r>  0.0045  0.0445  0.0005  0.0350  0.0000  0.0000  0.0000  0.0000  0.0000 </r>
        <r>  0.0045  0.0445  0.0005  0.0350  0.0000  0.0000  0.0000  0.0000  0.0000 </r>
        <r>  0.0045  0.0445  0.0005  0.0350  0.0000  0.0000  0.0000  0.0000  0.0000 </r>
       </set>
       <set comment="band 8">
        <r>  0.0065  0.0403  0.0024  0.0385  0.0000  0.0000  0.0000  0.0000  0.0000 </r>
        <r>  0.0065  0.0403  0.0024  0.0385  0.0000  0.0000  0.0000  0.0000  0.0000 </r>
        <r>  0.0065  0.0403  0.0024  0.0385  0.0000  0.0000  0.0000  0.0000  0.0000 </r>
        <r>  0.0065  0.0403  0.0024  0.0385  0.0000  0.0000  0.0000  0.0000  0.0000 </r>
       </set>
       <set comment="band 9">
        <r>  0.0168  0.0010  0.1078  0.0035  0.0000  0.0000  0.0000  0.0000  0.0000 </r>
        <r>  0.0168  0.0010  0.1078  0.0035  0.0000  0.0000  0.0000  0.0000  0.0000 </r>
        <r>  0.0168  0.0010  0.1078  0.0035  0.0000  0.0000  0.0000  0.0000  0.0000 </r>
        <r>  0.0168  0.0010  0.1078  0.0035  0.0000  0.0000  0.0000  0.0000  0.0000 </r>
       </set>
       <set comment="band 10">
        <r>  0.0161  0.0008  0.1118  0.0032  0.0000  0.0000  0.0000  0.0000  0.0000 </r>
        <r>  0.0161  0.0008  0.1118  0.0032  0.0000  0.0000  0.0000  0.0000  0.0000 </r>
        <r>  0.0161  0.0008  0.1118  0.0032  0.0000  0.0000  0.0000  0.0000  0.0000 </r>
        <r>  0.0161  0.0008  0.1118  0.0032  0.0000  0.0000  0.0000  0.0000  0.0000 </r>
       </set>
       <set comment="band 11">
        <r>  0.0183  0.0371  0.0203  0.0486  0.0000  0.0000  0.0000  0.0000  0.0000 </r>
        <r>  0.0183  0.0371  0.0203  0.0486  0.0000  0.0000  0.0000  0.0000  0.0000 </r>
        <r>  0.0183  0.0371  0.0203  0.0486  0.0000  0.0000  0.0000  0.0000  0.0000 </r>
        <r>  0.0183  0.0371  0.0203  0.0486  0.0000  0.0000  0.0000  0.0000  0.0000 </r>
       </set>
       <set comment="band 12">
        <r>  0.0283  0.0068  0.0494  0.0186  0.0000  0.0000  0.0000  0.0000  0.0000 </r>
        <r>  0.0283  0.0068  0.0494  0.0186  0.0000  0.0000  0.0000  0.0000  0.0000 </r>
        <r>  0.0283  0.0068  0.0494  0.0186  0.0000  0.0000  0.0000  0.0000  0.0000 </r>
        <r>  0.0283  0.0068  0.0494  0.0186  0.0000  0.0000  0.0000  0.0000  0.0000 </r>
       </set>
       <set comment="band 13">
        <r>  0.0142  0.0233  0.0522  0.0175  0.0000  0.0000  0.0000  0.0000  0.0000 </r>
        <r>  0.0142  0.0233  0.0522  0.0175  0.0000  0.0000  0.0000  0.0000  0.0000 </r>
        <r>  0.0142  0.0233  0.0522  0.0175  0.0000  0.0000  0.0000  0.0000  0.0000 </r>
        <r>  0.0142  0.0233  0.0522  0.0175  0.0000  0.0000  0.0000  0.0000  0.0000 </r>
       </set>
       <set comment="band 14">
        <r>  0.0027  0.0618  0.0090  0.0551  0.0000  0.0000  0.0000  0.0000  0.0000 </r>
        <r>  0.0027  0.0618  0.0090  0.0551  0.0000  0.0000  0.0000  0.0000  0.0000 </r>
        <r>  0.0027  0.0618  0.0090  0.0551  0.0000  0.0000  0.0000  0.0000  0.0000 </r>
        <r>  0.0027  0.0618  0.0090  0.0551  0.0000  0.0000  0.0000  0.0000  0.0000 </r>
       </set>
       <set comment="band 15">
        <r>  0.0046  0.0572  0.0168  0.0561  0.0000  0.0000  0.0000  0.0000  0.0000 </r>
        <r>  0.0046  0.0572  0.0168  0.0561  0.0000  0.0000  0.0000  0.0000  0.0000 </r>
        <r>  0.0046  0.0572  0.0168  0.0561  0.0000  0.0000  0.0000  0.0000  0.0000 </r>
        <r>  0.0046  0.0572  0.0168  0.0561  0.0000  0.0000  0.0000  0.0000  0.0000 </r>
       </set>
       <set comment="band 16">
        <r>  0.0020  0.0669  0.0061  0.0654  0.0000  0.0000  0.0000  0.0000  0.0000 </r>
        <r>  0.0020  0.0669  0.0061  0.0654  0.0000  0.0000  0.0000  0.0000  0.0000 </r>
        <r>  0.0020  0.0669  0.0061  0.0654  0.0000  0.0000  0.0000  0.0000  0.0000 </r>
        <r>  0.0020  0.0669  0.0061  0.0654  0.0000  0.0000  0.0000  0.0000  0.0000 </r>
       </set>
      </set>
      <set comment="kpoint 120">
       <set comment="band 1">
        <r>  0.1323  0.0001  0.0119  0.0001  0.0000  0.0000  0.0000  0.0000  0.0000 </r>
        <r>  0.1323  0.0001  0.0119  0.0001  0.0000  0.0000  0.0000  0.0000  0.0000 </r>
        <r>  0.1323  0.0001  0.0119  0.0001  0.0000  0.0000  0.0000  0.0000  0.0000 </r>
        <r>  0.1323  0.0001  0.0119  0.0001  0.0000  0.0000  0.0000  0.0000  0.0000 </r>
       </set>
       <set comment="band 2">
        <r>  0.1327  0.0001  0.0121  0.0000  0.0000  0.0000  0.0000  0.0000  0.0000 </r>
        <r>  0.1327  0.0001  0.0121  0.0000  0.0000  0.0000  0.0000  0.0000  0.0000 </r>
        <r>  0.1327  0.0001  0.0121  0.0000  0.0000  0.0000  0.0000  0.0000  0.0000 </r>
        <r>  0.1327  0.0001  0.0121  0.0000  0.0000  0.0000  0.0000  0.0000  0.0000 </r>
       </set>
       <set comment="band 3">
        <r>  0.1259  0.0005  0.0086  0.0003  0.0000  0.0000  0.0000  0.0000  0.0000 </r>
        <r>  0.1259  0.0005  0.0086  0.0003  0.0000  0.0000  0.0000  0.0000  0.0000 </r>
        <r>  0.1259  0.0005  0.0086  0.0003  0.0000  0.0000  0.0000  0.0000  0.0000 </r>
        <r>  0.1259  0.0005  0.0086  0.0003  0.0000  0.0000  0.0000  0.0000  0.0000 </r>
       </set>
       <set comment="band 4">
        <r>  0.1260  0.0005  0.0089  0.0003  0.0000  0.0000  0.0000  0.0000  0.0000 </r>
        <r>  0.1260  0.0005  0.0089  0.0003  0.0000  0.0000  0.0000  0.0000  0.0000 </r>
        <r>  0.1260  0.0005  0.0089  0.0003  0.0000  0.0000  0.0000  0.0000  0.0000 </r>
        <r>  0.1260  0.0005  0.0089  0.0003  0.0000  0.0000  0.0000  0.0000  0.0000 </r>
       </set>
       <set comment="band 5">
        <r>  0.0000  0.0388  0.0000  0.0391  0.0000  0.0000  0.0000  0.0000  0.0000 </r>
        <r>  0.0000  0.0388  0.0000  0.0391  0.0000  0.0000  0.0000  0.0000  0.0000 </r>
        <r>  0.0000  0.0388  0.0000  0.0391  0.0000  0.0000  0.0000  0.0000  0.0000 </r>
        <r>  0.0000  0.0388  0.0000  0.0391  0.0000  0.0000  0.0000  0.0000  0.0000 </r>
       </set>
       <set comment="band 6">
        <r>  0.0022  0.0384  0.0005  0.0388  0.0000  0.0000  0.0000  0.0000  0.0000 </r>
        <r>  0.0022  0.0384  0.0005  0.0388  0.0000  0.0000  0.0000  0.0000  0.0000 </r>
        <r>  0.0022  0.0384  0.0005  0.0388  0.0000  0.0000  0.0000  0.0000  0.0000 </r>
        <r>  0.0022  0.0384  0.0005  0.0388  0.0000  0.0000  0.0000  0.0000  0.0000 </r>
       </set>
       <set comment="band 7">
        <r>  0.0000  0.0402  0.0000  0.0399  0.0000  0.0000  0.0000  0.0000  0.0000 </r>
        <r>  0.0000  0.0402  0.0000  0.0399  0.0000  0.0000  0.0000  0.0000  0.0000 </r>
        <r>  0.0000  0.0402  0.0000  0.0399  0.0000  0.0000  0.0000  0.0000  0.0000 </r>
        <r>  0.0000  0.0402  0.0000  0.0399  0.0000  0.0000  0.0000  0.0000  0.0000 </r>
       </set>
       <set comment="band 8">
        <r>  0.0020  0.0398  0.0006  0.0397  0.0000  0.0000  0.0000  0.0000  0.0000 </r>
        <r>  0.0020  0.0398  0.0006  0.0397  0.0000  0.0000  0.0000  0.0000  0.0000 </r>
        <r>  0.0020  0.0398  0.0006  0.0397  0.0000  0.0000  0.0000  0.0000  0.0000 </r>
        <r>  0.0020  0.0398  0.0006  0.0397  0.0000  0.0000  0.0000  0.0000  0.0000 </r>
       </set>
       <set comment="band 9">
        <r>  0.0172  0.0004  0.1144  0.0004  0.0000  0.0000  0.0000  0.0000  0.0000 </r>
        <r>  0.0172  0.0004  0.1144  0.0004  0.0000  0.0000  0.0000  0.0000  0.0000 </r>
        <r>  0.0172  0.0004  0.1144  0.0004  0.0000  0.0000  0.0000  0.0000  0.0000 </r>
        <r>  0.0172  0.0004  0.1144  0.0004  0.0000  0.0000  0.0000  0.0000  0.0000 </r>
       </set>
       <set comment="band 10">
        <r>  0.0170  0.0002  0.1158  0.0003  0.0000  0.0000  0.0000  0.0000  0.0000 </r>
        <r>  0.0170  0.0002  0.1158  0.0003  0.0000  0.0000  0.0000  0.0000  0.0000 </r>
        <r>  0.0170  0.0002  0.1158  0.0003  0.0000  0.0000  0.0000  0.0000  0.0000 </r>
        <r>  0.0170  0.0002  0.1158  0.0003  0.0000  0.0000  0.0000  0.0000  0.0000 </r>
       </set>
       <set comment="band 11">
        <r>  0.0283  0.0011  0.0708  0.0016  0.0000  0.0000  0.0000  0.0000  0.0000 </r>
        <r>  0.0283  0.0011  0.0708  0.0016  0.0000  0.0000  0.0000  0.0000  0.0000 </r>
        <r>  0.0283  0.0011  0.0708  0.0016  0.0000  0.0000  0.0000  0.0000  0.0000 </r>
        <r>  0.0283  0.0011  0.0708  0.0016  0.0000  0.0000  0.0000  0.0000  0.0000 </r>
       </set>
       <set comment="band 12">
        <r>  0.0266  0.0066  0.0644  0.0072  0.0000  0.0000  0.0000  0.0000  0.0000 </r>
        <r>  0.0266  0.0066  0.0644  0.0072  0.0000  0.0000  0.0000  0.0000  0.0000 </r>
        <r>  0.0266  0.0066  0.0644  0.0072  0.0000  0.0000  0.0000  0.0000  0.0000 </r>
        <r>  0.0266  0.0066  0.0644  0.0072  0.0000  0.0000  0.0000  0.0000  0.0000 </r>
       </set>
       <set comment="band 13">
        <r>  0.0023  0.0568  0.0115  0.0564  0.0000  0.0000  0.0000  0.0000  0.0000 </r>
        <r>  0.0023  0.0568  0.0115  0.0564  0.0000  0.0000  0.0000  0.0000  0.0000 </r>
        <r>  0.0023  0.0568  0.0115  0.0564  0.0000  0.0000  0.0000  0.0000  0.0000 </r>
        <r>  0.0023  0.0568  0.0115  0.0564  0.0000  0.0000  0.0000  0.0000  0.0000 </r>
       </set>
       <set comment="band 14">
        <r>  0.0000  0.0638  0.0001  0.0635  0.0000  0.0000  0.0000  0.0000  0.0000 </r>
        <r>  0.0000  0.0638  0.0001  0.0635  0.0000  0.0000  0.0000  0.0000  0.0000 </r>
        <r>  0.0000  0.0638  0.0001  0.0635  0.0000  0.0000  0.0000  0.0000  0.0000 </r>
        <r>  0.0000  0.0638  0.0001  0.0635  0.0000  0.0000  0.0000  0.0000  0.0000 </r>
       </set>
       <set comment="band 15">
        <r>  0.0012  0.0691  0.0037  0.0690  0.0000  0.0000  0.0000  0.0000  0.0000 </r>
        <r>  0.0012  0.0691  0.0037  0.0690  0.0000  0.0000  0.0000  0.0000  0.0000 </r>
        <r>  0.0012  0.0691  0.0037  0.0690  0.0000  0.0000  0.0000  0.0000  0.0000 </r>
        <r>  0.0012  0.0691  0.0037  0.0690  0.0000  0.0000  0.0000  0.0000  0.0000 </r>
       </set>
       <set comment="band 16">
        <r>  0.0000  0.0719  0.0000  0.0718  0.0000  0.0000  0.0000  0.0000  0.0000 </r>
        <r>  0.0000  0.0719  0.0000  0.0718  0.0000  0.0000  0.0000  0.0000  0.0000 </r>
        <r>  0.0000  0.0719  0.0000  0.0718  0.0000  0.0000  0.0000  0.0000  0.0000 </r>
        <r>  0.0000  0.0719  0.0000  0.0718  0.0000  0.0000  0.0000  0.0000  0.0000 </r>
       </set>
      </set>
     </set>
    </set>
   </array>
  </projected>
 </calculation>
 <structure name="finalpos" >
  <crystal>
   <varray name="basis" >
    <v>       4.06163480       0.00000000       0.00000000 </v>
    <v>       0.00000000       4.06163480       0.00000000 </v>
    <v>       0.00000000       0.00000000       5.25398080 </v>
   </varray>
   <i name="volume">     86.67427632 </i>
   <varray name="rec_basis" >
    <v>       0.24620628       0.00000000       0.00000000 </v>
    <v>       0.00000000       0.24620628       0.00000000 </v>
    <v>       0.00000000       0.00000000       0.19033187 </v>
   </varray>
  </crystal>
  <varray name="positions" >
   <v>       0.00000000       0.00000000       0.70783650 </v>
   <v>       0.00000000       0.00000000       0.29216350 </v>
   <v>       0.50000000       0.50000000       0.20783650 </v>
   <v>       0.50000000       0.50000000       0.79216350 </v>
  </varray>
 </structure>
</modeling>
