<?xml version="1.0" encoding="ISO-8859-1"?>
<modeling>
 <generator>
  <i name="program" type="string">vasp </i>
  <i name="version" type="string">5.4.4.18Apr17-6-g9f103f2a35  </i>
  <i name="subversion" type="string">(build Mar 14 2019 23:57:55) complex            parallel </i>
  <i name="platform" type="string">LinuxIFC </i>
  <i name="date" type="string">2019 11 20 </i>
  <i name="time" type="string">14:01:06 </i>
 </generator>
 <incar>
  <i type="string" name="PREC">normal</i>
  <i type="int" name="IALGO">    48</i>
  <i type="int" name="ISPIN">     1</i>
  <i type="int" name="ICHARG">     1</i>
  <i type="int" name="NELM">    60</i>
  <i type="int" name="NELMIN">     2</i>
  <i type="int" name="IBRION">     2</i>
  <i name="EDIFF">      0.00010000</i>
  <i name="EDIFFG">     -0.01000000</i>
  <i type="int" name="NSW">    50</i>
  <i type="int" name="ISIF">     2</i>
  <i name="ENCUT">    275.00000000</i>
  <i type="logical" name="LREAL"> F  </i>
  <i type="int" name="ISMEAR">    -5</i>
  <i type="logical" name="LWAVE"> F  </i>
  <i type="int" name="LORBIT">    11</i>
  <i type="logical" name="LASPH"> T  </i>
  <v type="int" name="KPOINT_BSE">    -1     0     0     0</v>
  <i type="int" name="NELM">    60</i>
  <i type="logical" name="LASPH"> T  </i>
 </incar>
 <structure name="primitive_cell" >
  <crystal>
   <varray name="basis" >
    <v>       6.54920000       0.00000000       0.00000000 </v>
    <v>       0.00000000       5.96893900      -2.80342700 </v>
    <v>       0.00000000       0.00000000       6.69510000 </v>
   </varray>
   <i name="volume">    261.72334480 </i>
   <varray name="rec_basis" >
    <v>       0.15269040       0.00000000       0.00000000 </v>
    <v>       0.00000000       0.16753396       0.00000000 </v>
    <v>       0.00000000       0.07015119       0.14936297 </v>
   </varray>
  </crystal>
  <varray name="positions" >
   <v>       0.12900000      -0.15700000       0.12500000 </v>
   <v>       0.00000000      -0.28000000      -0.29100000 </v>
   <v>      -0.50000000      -0.28000000       0.20900000 </v>
   <v>       0.00000000       0.28000000       0.29100000 </v>
   <v>      -0.14000000      -0.34800000       0.32500000 </v>
   <v>       0.14000000       0.34800000      -0.32500000 </v>
   <v>       0.36000000       0.34800000       0.17500000 </v>
   <v>      -0.12900000       0.15700000      -0.12500000 </v>
   <v>       0.37100000      -0.15700000      -0.37500000 </v>
   <v>      -0.36000000      -0.34800000      -0.17500000 </v>
   <v>      -0.37100000       0.15700000       0.37500000 </v>
   <v>      -0.50000000       0.28000000      -0.20900000 </v>
  </varray>
 </structure>
 <varray name="primitive_index" >
  <v type="int" >        1 </v>
  <v type="int" >       12 </v>
  <v type="int" >        9 </v>
  <v type="int" >       10 </v>
  <v type="int" >        8 </v>
  <v type="int" >        6 </v>
  <v type="int" >        7 </v>
  <v type="int" >        3 </v>
  <v type="int" >        4 </v>
  <v type="int" >        5 </v>
  <v type="int" >        2 </v>
  <v type="int" >       11 </v>
 </varray>
 <kpoints>
  <generation param="Gamma">
   <v type="int" name="divisions">       3        4        3 </v>
   <v name="usershift">      0.00000000       0.00000000       0.00000000 </v>
   <v name="genvec1">      0.33333333       0.00000000       0.00000000 </v>
   <v name="genvec2">      0.00000000       0.25000000       0.00000000 </v>
   <v name="genvec3">      0.00000000       0.00000000       0.33333333 </v>
   <v name="shift">      0.00000000       0.00000000       0.00000000 </v>
  </generation>
  <varray name="kpointlist" >
   <v>       0.00000000       0.00000000       0.00000000 </v>
   <v>       0.33333333       0.00000000       0.00000000 </v>
   <v>       0.00000000       0.25000000       0.00000000 </v>
   <v>       0.33333333       0.25000000       0.00000000 </v>
   <v>       0.00000000       0.50000000       0.00000000 </v>
   <v>       0.33333333       0.50000000       0.00000000 </v>
   <v>       0.00000000       0.00000000       0.33333333 </v>
   <v>       0.33333333       0.00000000       0.33333333 </v>
   <v>       0.00000000       0.25000000       0.33333333 </v>
   <v>       0.33333333       0.25000000       0.33333333 </v>
   <v>       0.00000000       0.50000000       0.33333333 </v>
   <v>       0.33333333       0.50000000       0.33333333 </v>
   <v>       0.00000000      -0.25000000       0.33333333 </v>
   <v>       0.33333333      -0.25000000       0.33333333 </v>
  </varray>
  <varray name="weights" >
   <v>       0.02777778 </v>
   <v>       0.05555556 </v>
   <v>       0.05555556 </v>
   <v>       0.11111111 </v>
   <v>       0.02777778 </v>
   <v>       0.05555556 </v>
   <v>       0.05555556 </v>
   <v>       0.11111111 </v>
   <v>       0.05555556 </v>
   <v>       0.11111111 </v>
   <v>       0.05555556 </v>
   <v>       0.11111111 </v>
   <v>       0.05555556 </v>
   <v>       0.11111111 </v>
  </varray>
  <varray name="tetrahedronlist"  type="int" >
   <v type="int" >        2        1        2        4        7 </v>
   <v type="int" >        2        1        3        4        7 </v>
   <v type="int" >        2        3        4        7        9 </v>
   <v type="int" >        2        2        4        7        8 </v>
   <v type="int" >        2        4        7        8       10 </v>
   <v type="int" >        2        4        7        9       10 </v>
   <v type="int" >        2        2        2        4        8 </v>
   <v type="int" >        2        2        4        4        8 </v>
   <v type="int" >        2        4        4        8       10 </v>
   <v type="int" >        2        2        4        8        8 </v>
   <v type="int" >        2        4        8        8       10 </v>
   <v type="int" >        2        4        8       10       10 </v>
   <v type="int" >        2        1        2        3        8 </v>
   <v type="int" >        2        2        3        4        8 </v>
   <v type="int" >        2        3        4        8       10 </v>
   <v type="int" >        2        1        3        7        8 </v>
   <v type="int" >        2        3        7        8        9 </v>
   <v type="int" >        2        3        8        9       10 </v>
   <v type="int" >        2        3        4        6        9 </v>
   <v type="int" >        2        3        5        6        9 </v>
   <v type="int" >        2        5        6        9       11 </v>
   <v type="int" >        2        4        6        9       10 </v>
   <v type="int" >        2        6        9       10       12 </v>
   <v type="int" >        2        6        9       11       12 </v>
   <v type="int" >        2        4        4        6       10 </v>
   <v type="int" >        2        4        6        6       10 </v>
   <v type="int" >        2        6        6       10       12 </v>
   <v type="int" >        2        4        6       10       10 </v>
   <v type="int" >        2        6       10       10       12 </v>
   <v type="int" >        2        6       10       12       12 </v>
   <v type="int" >        2        3        4        5       10 </v>
   <v type="int" >        2        4        5        6       10 </v>
   <v type="int" >        2        5        6       10       12 </v>
   <v type="int" >        2        3        5        9       10 </v>
   <v type="int" >        2        5        9       10       11 </v>
   <v type="int" >        2        5       10       11       12 </v>
   <v type="int" >        2        4        5        6       11 </v>
   <v type="int" >        2        3        4        5       11 </v>
   <v type="int" >        2        3        4       11       13 </v>
   <v type="int" >        2        4        6       11       12 </v>
   <v type="int" >        2        4       11       12       14 </v>
   <v type="int" >        2        4       11       13       14 </v>
   <v type="int" >        2        4        6        6       12 </v>
   <v type="int" >        2        4        4        6       12 </v>
   <v type="int" >        2        4        4       12       14 </v>
   <v type="int" >        2        4        6       12       12 </v>
   <v type="int" >        2        4       12       12       14 </v>
   <v type="int" >        2        4       12       14       14 </v>
   <v type="int" >        2        3        5        6       12 </v>
   <v type="int" >        2        3        4        6       12 </v>
   <v type="int" >        2        3        4       12       14 </v>
   <v type="int" >        2        3        5       11       12 </v>
   <v type="int" >        2        3       11       12       13 </v>
   <v type="int" >        2        3       12       13       14 </v>
   <v type="int" >        2        2        3        4       13 </v>
   <v type="int" >        2        1        2        3       13 </v>
   <v type="int" >        2        1        2        7       13 </v>
   <v type="int" >        2        2        4       13       14 </v>
   <v type="int" >        2        2        8       13       14 </v>
   <v type="int" >        2        2        7        8       13 </v>
   <v type="int" >        2        2        4        4       14 </v>
   <v type="int" >        2        2        2        4       14 </v>
   <v type="int" >        2        2        2        8       14 </v>
   <v type="int" >        2        2        4       14       14 </v>
   <v type="int" >        2        2        8       14       14 </v>
   <v type="int" >        2        2        8        8       14 </v>
   <v type="int" >        2        1        3        4       14 </v>
   <v type="int" >        2        1        2        4       14 </v>
   <v type="int" >        2        1        2        8       14 </v>
   <v type="int" >        2        1        3       13       14 </v>
   <v type="int" >        2        1        7       13       14 </v>
   <v type="int" >        2        1        7        8       14 </v>
   <v type="int" >        2        7        7        8       10 </v>
   <v type="int" >        2        7        7        9       10 </v>
   <v type="int" >        2        7        9       10       13 </v>
   <v type="int" >        2        7        8        8       10 </v>
   <v type="int" >        2        7        8       10       14 </v>
   <v type="int" >        2        7       10       13       14 </v>
   <v type="int" >        4        8        8        8       10 </v>
   <v type="int" >        2        8        8       10       10 </v>
   <v type="int" >        2        8       10       10       14 </v>
   <v type="int" >        2        8        8       10       14 </v>
   <v type="int" >        2        8       10       14       14 </v>
   <v type="int" >        2        7        8        8        9 </v>
   <v type="int" >        2        8        8        9       10 </v>
   <v type="int" >        2        8        9       10       14 </v>
   <v type="int" >        2        7        7        8        9 </v>
   <v type="int" >        2        7        8        9       13 </v>
   <v type="int" >        2        8        9       13       14 </v>
   <v type="int" >        2        9       10       12       13 </v>
   <v type="int" >        2        9       11       12       13 </v>
   <v type="int" >        2       11       11       12       13 </v>
   <v type="int" >        2       10       12       13       14 </v>
   <v type="int" >        2       12       12       13       14 </v>
   <v type="int" >        2       11       12       12       13 </v>
   <v type="int" >        2       10       10       12       14 </v>
   <v type="int" >        2       10       12       12       14 </v>
   <v type="int" >        4       12       12       12       14 </v>
   <v type="int" >        2       10       12       14       14 </v>
   <v type="int" >        2       12       12       14       14 </v>
   <v type="int" >        2        9       10       11       14 </v>
   <v type="int" >        2       10       11       12       14 </v>
   <v type="int" >        2       11       12       12       14 </v>
   <v type="int" >        2        9       11       13       14 </v>
   <v type="int" >        2       11       11       13       14 </v>
   <v type="int" >        2       11       11       12       14 </v>
  </varray>
  <i name="volumeweight">      0.00462963 </i>
 </kpoints>
 <parameters>
  <separator name="general" >
   <i type="string" name="SYSTEM">unknown system</i>
   <i type="logical" name="LCOMPAT"> F  </i>
  </separator>
  <separator name="electronic" >
   <i type="string" name="PREC">normal</i>
   <i name="ENMAX">    275.00000000</i>
   <i name="ENAUG">    380.51300000</i>
   <i name="EDIFF">      0.00010000</i>
   <i type="int" name="IALGO">    48</i>
   <i type="int" name="IWAVPR">    11</i>
   <i type="int" name="NBANDS">    46</i>
   <i name="NELECT">     76.00000000</i>
   <i type="int" name="TURBO">     0</i>
   <i type="int" name="IRESTART">     0</i>
   <i type="int" name="NREBOOT">     0</i>
   <i type="int" name="NMIN">     0</i>
   <i name="EREF">      0.00000000</i>
   <separator name="electronic smearing" >
    <i type="int" name="ISMEAR">    -5</i>
    <i name="SIGMA">      0.20000000</i>
    <i name="KSPACING">      0.50000000</i>
    <i type="logical" name="KGAMMA"> T  </i>
   </separator>
   <separator name="electronic projectors" >
    <i type="logical" name="LREAL"> F  </i>
    <v name="ROPT">      0.00000000      0.00000000</v>
    <i type="int" name="LMAXPAW">  -100</i>
    <i type="int" name="LMAXMIX">     2</i>
    <i type="logical" name="NLSPLINE"> F  </i>
   </separator>
   <separator name="electronic startup" >
    <i type="int" name="ISTART">     0</i>
    <i type="int" name="ICHARG">     1</i>
    <i type="int" name="INIWAV">     1</i>
   </separator>
   <separator name="electronic spin" >
    <i type="int" name="ISPIN">     1</i>
    <i type="logical" name="LNONCOLLINEAR"> F  </i>
    <v name="MAGMOM">      1.00000000      1.00000000      1.00000000      1.00000000      1.00000000      1.00000000      1.00000000      1.00000000      1.00000000      1.00000000      1.00000000      1.00000000</v>
    <i name="NUPDOWN">     -1.00000000</i>
    <i type="logical" name="LSORBIT"> F  </i>
    <v name="SAXIS">      0.00000000      0.00000000      1.00000000</v>
    <i type="logical" name="LSPIRAL"> F  </i>
    <v name="QSPIRAL">      0.00000000      0.00000000      0.00000000</v>
    <i type="logical" name="LZEROZ"> F  </i>
   </separator>
   <separator name="electronic exchange-correlation" >
    <i type="logical" name="LASPH"> T  </i>
    <i type="logical" name="LMETAGGA"> F  </i>
   </separator>
   <separator name="electronic convergence" >
    <i type="int" name="NELM">    60</i>
    <i type="int" name="NELMDL">   -12</i>
    <i type="int" name="NELMIN">     2</i>
    <i name="ENINI">    275.00000000</i>
    <separator name="electronic convergence detail" >
     <i type="logical" name="LDIAG"> T  </i>
     <i type="logical" name="LSUBROT"> F  </i>
     <i name="WEIMIN">      0.00100000</i>
     <i name="EBREAK">      0.00000054</i>
     <i name="DEPER">      0.30000000</i>
     <i type="int" name="NRMM">     4</i>
     <i name="TIME">      0.40000000</i>
    </separator>
   </separator>
   <separator name="electronic mixer" >
    <i name="AMIX">      0.40000000</i>
    <i name="BMIX">      1.00000000</i>
    <i name="AMIN">      0.10000000</i>
    <i name="AMIX_MAG">      1.60000000</i>
    <i name="BMIX_MAG">      1.00000000</i>
    <separator name="electronic mixer details" >
     <i type="int" name="IMIX">     4</i>
     <i type="logical" name="MIXFIRST"> F  </i>
     <i type="int" name="MAXMIX">   -45</i>
     <i name="WC">    100.00000000</i>
     <i type="int" name="INIMIX">     1</i>
     <i type="int" name="MIXPRE">     1</i>
     <i type="int" name="MREMOVE">     5</i>
    </separator>
   </separator>
   <separator name="electronic dipolcorrection" >
    <i type="logical" name="LDIPOL"> F  </i>
    <i type="logical" name="LMONO"> F  </i>
    <i type="int" name="IDIPOL">     0</i>
    <i name="EPSILON">      1.00000000</i>
    <v name="DIPOL">   -100.00000000   -100.00000000   -100.00000000</v>
    <i name="EFIELD">      0.00000000</i>
   </separator>
  </separator>
  <separator name="grids" >
   <i type="int" name="NGX">    28</i>
   <i type="int" name="NGY">    28</i>
   <i type="int" name="NGZ">    28</i>
   <i type="int" name="NGXF">    56</i>
   <i type="int" name="NGYF">    56</i>
   <i type="int" name="NGZF">    56</i>
   <i type="logical" name="ADDGRID"> F  </i>
  </separator>
  <separator name="ionic" >
   <i type="int" name="NSW">    50</i>
   <i type="int" name="IBRION">     2</i>
   <i type="int" name="MDALGO">     0</i>
   <i type="int" name="ISIF">     2</i>
   <i name="PSTRESS">      0.00000000</i>
   <i name="EDIFFG">     -0.01000000</i>
   <i type="int" name="NFREE">     1</i>
   <i name="POTIM">      0.50000000</i>
   <i name="SMASS">     -3.00000000</i>
   <i name="SCALEE">      1.00000000</i>
  </separator>
  <separator name="ionic md" >
   <i name="TEBEG">      0.00010000</i>
   <i name="TEEND">      0.00010000</i>
   <i type="int" name="NBLOCK">     1</i>
   <i type="int" name="KBLOCK">    50</i>
   <i type="int" name="NPACO">   256</i>
   <i name="APACO">     16.00000000</i>
  </separator>
  <separator name="symmetry" >
   <i type="int" name="ISYM">     2</i>
   <i name="SYMPREC">      0.00001000</i>
  </separator>
  <separator name="dos" >
   <i type="int" name="LORBIT">    11</i>
   <v name="RWIGS">     -1.00000000     -1.00000000</v>
   <i type="int" name="NEDOS">   301</i>
   <i name="EMIN">     10.00000000</i>
   <i name="EMAX">    -10.00000000</i>
   <i name="EFERMI">      0.00000000</i>
  </separator>
  <separator name="writing" >
   <i type="int" name="NWRITE">     2</i>
   <i type="logical" name="LWAVE"> F  </i>
   <i type="logical" name="LDOWNSAMPLE"> F  </i>
   <i type="logical" name="LCHARG"> T  </i>
   <i type="logical" name="LPARD"> F  </i>
   <i type="logical" name="LVTOT"> F  </i>
   <i type="logical" name="LVHAR"> F  </i>
   <i type="logical" name="LELF"> F  </i>
   <i type="logical" name="LOPTICS"> F  </i>
   <v name="STM">      0.00000000      0.00000000      0.00000000      0.00000000      0.00000000      0.00000000      0.00000000</v>
  </separator>
  <separator name="performance" >
   <i type="int" name="NPAR">     2</i>
   <i type="int" name="NSIM">     4</i>
   <i type="int" name="NBLK">    -1</i>
   <i type="logical" name="LPLANE"> T  </i>
   <i type="logical" name="LSCALAPACK"> T  </i>
   <i type="logical" name="LSCAAWARE"> F  </i>
   <i type="logical" name="LSCALU"> F  </i>
   <i type="logical" name="LASYNC"> F  </i>
   <i type="logical" name="LORBITALREAL"> F  </i>
  </separator>
  <separator name="miscellaneous" >
   <i type="int" name="IDIOT">     3</i>
   <i type="int" name="ISPECIAL">     0</i>
   <i type="logical" name="LMUSIC"> F  </i>
   <v name="POMASS">    121.75000000    192.22000000</v>
   <v name="DARWINR">      0.00000000      0.00000000</v>
   <v name="DARWINV">      1.00000000      1.00000000</v>
   <i type="logical" name="LCORR"> T  </i>
  </separator>
  <i type="logical" name="GGA_COMPAT"> T  </i>
  <i type="logical" name="LBERRY"> F  </i>
  <i type="int" name="ICORELEVEL">     0</i>
  <i type="logical" name="LDAU"> F  </i>
  <i type="int" name="I_CONSTRAINED_M">     0</i>
  <separator name="electronic exchange-correlation" >
   <i type="string" name="GGA">--</i>
   <i type="int" name="VOSKOWN">     0</i>
   <i type="logical" name="LHFCALC"> F  </i>
   <i type="string" name="PRECFOCK"></i>
   <i type="logical" name="LSYMGRAD"> F  </i>
   <i type="logical" name="LHFONE"> F  </i>
   <i type="logical" name="LRHFCALC"> F  </i>
   <i type="logical" name="LTHOMAS"> F  </i>
   <i type="logical" name="LMODELHF"> F  </i>
   <i name="ENCUT4O">     -1.00000000</i>
   <i type="int" name="EXXOEP">     0</i>
   <i type="int" name="FOURORBIT">     0</i>
   <i name="AEXX">      0.00000000</i>
   <i name="HFALPHA">      0.00000000</i>
   <i name="MCALPHA">      0.00000000</i>
   <i name="ALDAX">      1.00000000</i>
   <i name="AGGAX">      1.00000000</i>
   <i name="ALDAC">      1.00000000</i>
   <i name="AGGAC">      1.00000000</i>
   <i type="int" name="NKREDX">     1</i>
   <i type="int" name="NKREDY">     1</i>
   <i type="int" name="NKREDZ">     1</i>
   <i type="logical" name="SHIFTRED"> F  </i>
   <i type="logical" name="ODDONLY"> F  </i>
   <i type="logical" name="EVENONLY"> F  </i>
   <i type="int" name="LMAXFOCK">     0</i>
   <i type="int" name="NMAXFOCKAE">     0</i>
   <i type="logical" name="LFOCKAEDFT"> F  </i>
   <i name="HFSCREEN">      0.00000000</i>
   <i name="HFSCREENC">      0.00000000</i>
   <i type="int" name="NBANDSGWLOW">     0</i>
  </separator>
  <separator name="vdW DFT" >
   <i type="logical" name="LUSE_VDW"> F  </i>
   <i name="Zab_VDW">     -0.84910000</i>
   <i name="PARAM1">      0.12340000</i>
   <i name="PARAM2">      1.00000000</i>
   <i name="PARAM3">      0.00000000</i>
  </separator>
  <separator name="model GW" >
   <i type="int" name="MODEL_GW">     0</i>
   <i name="MODEL_EPS0">     13.08616724</i>
   <i name="MODEL_ALPHA">      1.00000000</i>
  </separator>
  <separator name="linear response parameters" >
   <i type="logical" name="LEPSILON"> F  </i>
   <i type="logical" name="LRPA"> F  </i>
   <i type="logical" name="LNABLA"> F  </i>
   <i type="logical" name="LVEL"> F  </i>
   <i type="int" name="KINTER">     0</i>
   <i name="CSHIFT">      0.10000000</i>
   <i name="OMEGAMAX">     -1.00000000</i>
   <i name="DEG_THRESHOLD">      0.00200000</i>
   <i name="RTIME">     -0.10000000</i>
   <i name="WPLASMAI">      0.00000000</i>
   <v name="DFIELD">      0.00000000      0.00000000      0.00000000</v>
   <v name="WPLASMA">      0.00000000      0.00000000      0.00000000      0.00000000      0.00000000      0.00000000      0.00000000      0.00000000      0.00000000</v>
  </separator>
  <separator name="orbital magnetization" >
   <i type="logical" name="NUCIND"> F  </i>
   <v name="MAGPOS">      0.00000000      0.00000000      0.00000000</v>
   <i type="logical" name="LNICSALL"> T  </i>
   <i type="logical" name="ORBITALMAG"> F  </i>
   <i type="logical" name="LMAGBLOCH"> F  </i>
   <i type="logical" name="LCHIMAG"> F  </i>
   <i type="logical" name="LGAUGE"> T  </i>
   <i type="int" name="MAGATOM">     0</i>
   <v name="MAGDIPOL">      0.00000000      0.00000000      0.00000000</v>
   <v name="AVECCONST">      0.00000000      0.00000000      0.00000000</v>
  </separator>
  <separator name="response functions" >
   <i type="logical" name="LADDER"> F  </i>
   <i type="logical" name="LRPAFORCE"> F  </i>
   <i type="logical" name="LFXC"> F  </i>
   <i type="logical" name="LHARTREE"> T  </i>
   <i type="int" name="IBSE">     0</i>
   <v type="int" name="KPOINT">    -1     0     0     0</v>
   <i type="logical" name="LTCTE"> F  </i>
   <i type="logical" name="LTETE"> F  </i>
   <i type="logical" name="LTRIPLET"> F  </i>
   <i type="logical" name="LFXCEPS"> F  </i>
   <i type="logical" name="LFXHEG"> F  </i>
   <i type="int" name="NATURALO">     2</i>
   <i type="logical" name="L2ORDER"> F  </i>
   <i type="logical" name="LMP2LT"> F  </i>
   <i type="logical" name="LUSEW"> F  </i>
   <i name="ENCUTGW">     -2.00000000</i>
   <i name="ENCUTGWSOFT">     -2.00000000</i>
   <i name="ENCUTLF">     -1.00000000</i>
   <i type="int" name="LMAXMP2">    -1</i>
   <i name="SCISSOR">      0.00000000</i>
   <i type="int" name="NOMEGA">     0</i>
   <i type="int" name="NOMEGAR">     0</i>
   <i type="int" name="NBANDSGW">    -1</i>
   <i type="int" name="NBANDSO">    -1</i>
   <i type="int" name="NBANDSV">    -1</i>
   <i type="int" name="NELM">    60</i>
   <i type="int" name="NELMHF">     1</i>
   <i type="int" name="DIM">     3</i>
   <i type="int" name="ANTIRES">     0</i>
   <i name="OMEGAMAX">    -30.00000000</i>
   <i name="OMEGAMIN">    -30.00000000</i>
   <i name="OMEGATL">   -200.00000000</i>
   <i type="int" name="OMEGAGRID">   140</i>
   <i name="CSHIFT">     -0.10000000</i>
   <i type="logical" name="SELFENERGY"> F  </i>
   <i type="logical" name="LSPECTRAL"> F  </i>
   <i type="logical" name="LSPECTRALGW"> F  </i>
   <i type="logical" name="LSINGLES"> F  </i>
   <i type="logical" name="LFERMIGW"> F  </i>
   <i type="logical" name="ODDONLYGW"> F  </i>
   <i type="logical" name="EVENONLYGW"> F  </i>
   <i type="int" name="NKREDLFX">     1</i>
   <i type="int" name="NKREDLFY">     1</i>
   <i type="int" name="NKREDLFZ">     1</i>
   <i type="int" name="MAXMEM">  2800</i>
   <i type="int" name="TELESCOPE">     0</i>
   <i type="int" name="TAUPAR">     1</i>
   <i type="int" name="OMEGAPAR">    -1</i>
   <i name="LAMBDA">      1.00000000</i>
  </separator>
  <separator name="External order field" >
   <i name="OFIELD_KAPPA">      0.00000000</i>
   <v name="OFIELD_K">      0.00000000      0.00000000      0.00000000</v>
   <i name="OFIELD_Q6_NEAR">      0.00000000</i>
   <i name="OFIELD_Q6_FAR">      0.00000000</i>
   <i name="OFIELD_A">      0.00000000</i>
  </separator>
 </parameters>
 <atominfo>
  <atoms>      12 </atoms>
  <types>       2 </types>
  <array name="atoms" >
   <dimension dim="1">ion</dimension>
   <field type="string">element</field>
   <field type="int">atomtype</field>
   <set>
    <rc><c>Sb</c><c>   1</c></rc>
    <rc><c>Sb</c><c>   1</c></rc>
    <rc><c>Sb</c><c>   1</c></rc>
    <rc><c>Sb</c><c>   1</c></rc>
    <rc><c>Sb</c><c>   1</c></rc>
    <rc><c>Sb</c><c>   1</c></rc>
    <rc><c>Sb</c><c>   1</c></rc>
    <rc><c>Sb</c><c>   1</c></rc>
    <rc><c>Ir</c><c>   2</c></rc>
    <rc><c>Ir</c><c>   2</c></rc>
    <rc><c>Ir</c><c>   2</c></rc>
    <rc><c>Ir</c><c>   2</c></rc>
   </set>
  </array>
  <array name="atomtypes" >
   <dimension dim="1">type</dimension>
   <field type="int">atomspertype</field>
   <field type="string">element</field>
   <field>mass</field>
   <field>valence</field>
   <field type="string">pseudopotential</field>
   <set>
    <rc><c>   8</c><c>Sb</c><c>    121.75000000</c><c>      5.00000000</c><c>  PAW_PBE Sb 06Sep2000                  </c></rc>
    <rc><c>   4</c><c>Ir</c><c>    192.22000000</c><c>      9.00000000</c><c>  PAW_PBE Ir 06Sep2000                  </c></rc>
   </set>
  </array>
 </atominfo>
 <structure name="initialpos" >
  <crystal>
   <varray name="basis" >
    <v>       6.54920000       0.00000000       0.00000000 </v>
    <v>       0.00000000       5.96893900      -2.80342700 </v>
    <v>       0.00000000       0.00000000       6.69510000 </v>
   </varray>
   <i name="volume">    261.72334480 </i>
   <varray name="rec_basis" >
    <v>       0.15269040       0.00000000       0.00000000 </v>
    <v>       0.00000000       0.16753396       0.00000000 </v>
    <v>       0.00000000       0.07015119       0.14936297 </v>
   </varray>
  </crystal>
  <varray name="positions" >
   <v>       0.12900000       0.84300000       0.12500000 </v>
   <v>       0.62900000       0.15700000       0.37500000 </v>
   <v>       0.87100000       0.15700000       0.87500000 </v>
   <v>       0.37100000       0.84300000       0.62500000 </v>
   <v>       0.64000000       0.65200000       0.82500000 </v>
   <v>       0.14000000       0.34800000       0.67500000 </v>
   <v>       0.36000000       0.34800000       0.17500000 </v>
   <v>       0.86000000       0.65200000       0.32500000 </v>
   <v>       0.50000000       0.72000000       0.20900000 </v>
   <v>       0.00000000       0.28000000       0.29100000 </v>
   <v>       0.50000000       0.28000000       0.79100000 </v>
   <v>       0.00000000       0.72000000       0.70900000 </v>
  </varray>
 </structure>
 <calculation>
  <scstep>
   <time name="diag">    0.09    0.09</time>
   <time name="diis">    0.19    0.19</time>
   <time name="orth">    0.01    0.01</time>
   <time name="total">    0.59    0.60</time>
   <energy>
    <i name="alphaZ">    119.46613832 </i>
    <i name="ewald">  -3560.76975640 </i>
    <i name="hartreedc">   -570.21164237 </i>
    <i name="XCdc">   -431.49709417 </i>
    <i name="pawpsdc">   3514.99420491 </i>
    <i name="pawaedc">  -2922.07608519 </i>
    <i name="eentropy">      0.00000000 </i>
    <i name="bandstr">    947.96276479 </i>
    <i name="atom">   3440.19946572 </i>
    <i name="e_fr_energy">    538.06799560 </i>
    <i name="e_wo_entrp">    538.06799560 </i>
    <i name="e_0_energy">    538.06799560 </i>
   </energy>
  </scstep>
  <scstep>
   <time name="diag">    0.08    0.08</time>
   <time name="diis">    0.19    0.19</time>
   <time name="orth">    0.01    0.01</time>
   <time name="total">    0.29    0.29</time>
   <energy>
    <i name="e_fr_energy">    108.44151888 </i>
    <i name="e_wo_entrp">    108.44151888 </i>
    <i name="e_0_energy">    108.44151888 </i>
   </energy>
  </scstep>
  <scstep>
   <time name="diag">    0.07    0.07</time>
   <time name="diis">    0.16    0.16</time>
   <time name="orth">    0.01    0.01</time>
   <time name="total">    0.25    0.25</time>
   <energy>
    <i name="e_fr_energy">     -2.78772069 </i>
    <i name="e_wo_entrp">     -2.78772069 </i>
    <i name="e_0_energy">     -2.78772069 </i>
   </energy>
  </scstep>
  <scstep>
   <time name="diag">    0.08    0.08</time>
   <time name="diis">    0.16    0.16</time>
   <time name="orth">    0.01    0.01</time>
   <time name="total">    0.25    0.25</time>
   <energy>
    <i name="e_fr_energy">    -43.08670264 </i>
    <i name="e_wo_entrp">    -43.08670264 </i>
    <i name="e_0_energy">    -43.08670264 </i>
   </energy>
  </scstep>
  <scstep>
   <time name="diag">    0.08    0.08</time>
   <time name="diis">    0.16    0.16</time>
   <time name="orth">    0.01    0.01</time>
   <time name="total">    0.25    0.25</time>
   <energy>
    <i name="e_fr_energy">    -58.20428992 </i>
    <i name="e_wo_entrp">    -58.20428992 </i>
    <i name="e_0_energy">    -58.20428992 </i>
   </energy>
  </scstep>
  <scstep>
   <time name="diag">    0.08    0.08</time>
   <time name="diis">    0.16    0.16</time>
   <time name="orth">    0.01    0.01</time>
   <time name="total">    0.25    0.25</time>
   <energy>
    <i name="e_fr_energy">    -65.69413556 </i>
    <i name="e_wo_entrp">    -65.69413556 </i>
    <i name="e_0_energy">    -65.69413556 </i>
   </energy>
  </scstep>
  <scstep>
   <time name="diag">    0.08    0.08</time>
   <time name="diis">    0.16    0.16</time>
   <time name="orth">    0.01    0.01</time>
   <time name="total">    0.24    0.25</time>
   <energy>
    <i name="e_fr_energy">    -69.43737509 </i>
    <i name="e_wo_entrp">    -69.43737509 </i>
    <i name="e_0_energy">    -69.43737509 </i>
   </energy>
  </scstep>
  <scstep>
   <time name="diag">    0.08    0.08</time>
   <time name="diis">    0.18    0.18</time>
   <time name="orth">    0.01    0.01</time>
   <time name="total">    0.27    0.27</time>
   <energy>
    <i name="e_fr_energy">    -71.45547095 </i>
    <i name="e_wo_entrp">    -71.45547095 </i>
    <i name="e_0_energy">    -71.45547095 </i>
   </energy>
  </scstep>
  <scstep>
   <time name="diag">    0.07    0.07</time>
   <time name="diis">    0.35    0.35</time>
   <time name="orth">    0.01    0.01</time>
   <time name="total">    0.43    0.44</time>
   <energy>
    <i name="e_fr_energy">    -73.88370625 </i>
    <i name="e_wo_entrp">    -73.88370625 </i>
    <i name="e_0_energy">    -73.88370625 </i>
   </energy>
  </scstep>
  <scstep>
   <time name="diag">    0.07    0.07</time>
   <time name="diis">    0.35    0.35</time>
   <time name="orth">    0.01    0.01</time>
   <time name="total">    0.43    0.43</time>
   <energy>
    <i name="e_fr_energy">    -73.94422974 </i>
    <i name="e_wo_entrp">    -73.94422974 </i>
    <i name="e_0_energy">    -73.94422974 </i>
   </energy>
  </scstep>
  <scstep>
   <time name="diag">    0.08    0.08</time>
   <time name="diis">    0.33    0.33</time>
   <time name="orth">    0.01    0.01</time>
   <time name="total">    0.42    0.42</time>
   <energy>
    <i name="e_fr_energy">    -73.95655838 </i>
    <i name="e_wo_entrp">    -73.95655838 </i>
    <i name="e_0_energy">    -73.95655838 </i>
   </energy>
  </scstep>
  <scstep>
   <time name="diag">    0.07    0.07</time>
   <time name="diis">    0.26    0.26</time>
   <time name="orth">    0.01    0.01</time>
   <time name="total">    0.37    0.37</time>
   <energy>
    <i name="e_fr_energy">    -73.95758109 </i>
    <i name="e_wo_entrp">    -73.95758109 </i>
    <i name="e_0_energy">    -73.95758109 </i>
   </energy>
  </scstep>
  <scstep>
   <time name="diag">    0.07    0.07</time>
   <time name="diis">    0.28    0.28</time>
   <time name="orth">    0.01    0.01</time>
   <time name="total">    0.66    0.66</time>
   <energy>
    <i name="e_fr_energy">    -72.90812090 </i>
    <i name="e_wo_entrp">    -72.90812090 </i>
    <i name="e_0_energy">    -72.90812090 </i>
   </energy>
  </scstep>
  <scstep>
   <time name="diag">    0.07    0.07</time>
   <time name="diis">    0.28    0.28</time>
   <time name="orth">    0.01    0.01</time>
   <time name="total">    0.66    0.66</time>
   <energy>
    <i name="e_fr_energy">    -72.52975231 </i>
    <i name="e_wo_entrp">    -72.52975231 </i>
    <i name="e_0_energy">    -72.52975231 </i>
   </energy>
  </scstep>
  <scstep>
   <time name="diag">    0.07    0.07</time>
   <time name="diis">    0.29    0.29</time>
   <time name="orth">    0.01    0.01</time>
   <time name="total">    0.68    0.68</time>
   <energy>
    <i name="e_fr_energy">    -72.46461355 </i>
    <i name="e_wo_entrp">    -72.46461355 </i>
    <i name="e_0_energy">    -72.46461355 </i>
   </energy>
  </scstep>
  <scstep>
   <time name="diag">    0.07    0.07</time>
   <time name="diis">    0.33    0.33</time>
   <time name="orth">    0.01    0.01</time>
   <time name="total">    0.72    0.72</time>
   <energy>
    <i name="e_fr_energy">    -72.46775450 </i>
    <i name="e_wo_entrp">    -72.46775450 </i>
    <i name="e_0_energy">    -72.46775450 </i>
   </energy>
  </scstep>
  <scstep>
   <time name="diag">    0.07    0.07</time>
   <time name="diis">    0.29    0.29</time>
   <time name="orth">    0.01    0.01</time>
   <time name="total">    0.67    0.67</time>
   <energy>
    <i name="e_fr_energy">    -72.46707833 </i>
    <i name="e_wo_entrp">    -72.46707833 </i>
    <i name="e_0_energy">    -72.46707833 </i>
   </energy>
  </scstep>
  <scstep>
   <time name="diag">    0.08    0.08</time>
   <time name="diis">    0.28    0.28</time>
   <time name="orth">    0.01    0.01</time>
   <time name="total">    0.67    0.67</time>
   <energy>
    <i name="e_fr_energy">    -72.46656031 </i>
    <i name="e_wo_entrp">    -72.46656031 </i>
    <i name="e_0_energy">    -72.46656031 </i>
   </energy>
  </scstep>
  <scstep>
   <time name="diag">    0.07    0.07</time>
   <time name="diis">    0.21    0.21</time>
   <time name="orth">    0.01    0.01</time>
   <time name="total">    0.57    0.57</time>
   <energy>
    <i name="alphaZ">    119.46613832 </i>
    <i name="ewald">  -3560.76975640 </i>
    <i name="hartreedc">   -553.94498374 </i>
    <i name="XCdc">   -429.73451420 </i>
    <i name="pawpsdc">   6147.92698140 </i>
    <i name="pawaedc">  -5566.54533817 </i>
    <i name="eentropy">      0.00000000 </i>
    <i name="bandstr">    330.93548392 </i>
    <i name="atom">   3440.19946572 </i>
    <i name="e_fr_energy">    -72.46652315 </i>
    <i name="e_wo_entrp">    -72.46652315 </i>
    <i name="e_0_energy">    -72.46652315 </i>
   </energy>
  </scstep>
  <structure>
   <crystal>
    <varray name="basis" >
     <v>       6.54920000       0.00000000       0.00000000 </v>
     <v>       0.00000000       5.96893900      -2.80342700 </v>
     <v>       0.00000000       0.00000000       6.69510000 </v>
    </varray>
    <i name="volume">    261.72334480 </i>
    <varray name="rec_basis" >
     <v>       0.15269040       0.00000000       0.00000000 </v>
     <v>       0.00000000       0.16753396       0.00000000 </v>
     <v>       0.00000000       0.07015119       0.14936297 </v>
    </varray>
   </crystal>
   <varray name="positions" >
    <v>       0.12900000       0.84300000       0.12500000 </v>
    <v>       0.62900000       0.15700000       0.37500000 </v>
    <v>       0.87100000       0.15700000       0.87500000 </v>
    <v>       0.37100000       0.84300000       0.62500000 </v>
    <v>       0.64000000       0.65200000       0.82500000 </v>
    <v>       0.14000000       0.34800000       0.67500000 </v>
    <v>       0.36000000       0.34800000       0.17500000 </v>
    <v>       0.86000000       0.65200000       0.32500000 </v>
    <v>       0.50000000       0.72000000       0.20900000 </v>
    <v>       0.00000000       0.28000000       0.29100000 </v>
    <v>       0.50000000       0.28000000       0.79100000 </v>
    <v>       0.00000000       0.72000000       0.70900000 </v>
   </varray>
  </structure>
  <varray name="forces" >
   <v>       0.26443065       0.55911962      -0.13347560 </v>
   <v>       0.26443065      -0.55911962       0.13347560 </v>
   <v>      -0.26443065      -0.55911962       0.13347560 </v>
   <v>      -0.26443065       0.55911962      -0.13347560 </v>
   <v>       0.25720945       0.64250856      -0.37069985 </v>
   <v>       0.25720945      -0.64250856       0.37069985 </v>
   <v>      -0.25720945      -0.64250856       0.37069985 </v>
   <v>      -0.25720945       0.64250856      -0.37069985 </v>
   <v>      -0.15118122       1.17962969      -0.16611314 </v>
   <v>      -0.15118122      -1.17962969       0.16611314 </v>
   <v>       0.15118122      -1.17962969       0.16611314 </v>
   <v>       0.15118122       1.17962969      -0.16611314 </v>
  </varray>
  <varray name="stress" >
   <v>      63.61334406       0.00000000       0.00000000 </v>
   <v>       0.00000000      66.67763099     -11.90969315 </v>
   <v>       0.00000000     -11.90969544      70.29228048 </v>
  </varray>
  <energy>
   <i name="e_fr_energy">    -72.46652315 </i>
   <i name="e_wo_entrp">    -72.46652315 </i>
   <i name="e_0_energy">      0.00000000 </i>
  </energy>
  <time name="totalsc">    9.99   10.02</time>
 </calculation>
 <calculation>
  <scstep>
   <time name="diag">    0.07    0.07</time>
   <time name="diis">    0.28    0.29</time>
   <time name="orth">    0.01    0.01</time>
   <time name="total">    0.68    0.68</time>
   <energy>
    <i name="alphaZ">    119.46613832 </i>
    <i name="ewald">  -3575.12100444 </i>
    <i name="hartreedc">   -541.42617361 </i>
    <i name="XCdc">   -429.83181950 </i>
    <i name="pawpsdc">   6145.63392010 </i>
    <i name="pawaedc">  -5564.24236081 </i>
    <i name="eentropy">      0.00000000 </i>
    <i name="bandstr">    332.68363312 </i>
    <i name="atom">   3440.19946572 </i>
    <i name="e_fr_energy">    -72.63820110 </i>
    <i name="e_wo_entrp">    -72.63820110 </i>
    <i name="e_0_energy">    -72.63820110 </i>
   </energy>
  </scstep>
  <scstep>
   <time name="diag">    0.07    0.07</time>
   <time name="diis">    0.28    0.28</time>
   <time name="orth">    0.01    0.01</time>
   <time name="total">    0.66    0.66</time>
   <energy>
    <i name="e_fr_energy">    -72.71186266 </i>
    <i name="e_wo_entrp">    -72.71186266 </i>
    <i name="e_0_energy">    -72.71186266 </i>
   </energy>
  </scstep>
  <scstep>
   <time name="diag">    0.08    0.08</time>
   <time name="diis">    0.32    0.32</time>
   <time name="orth">    0.01    0.01</time>
   <time name="total">    0.72    0.72</time>
   <energy>
    <i name="e_fr_energy">    -72.70325150 </i>
    <i name="e_wo_entrp">    -72.70325150 </i>
    <i name="e_0_energy">    -72.70325150 </i>
   </energy>
  </scstep>
  <scstep>
   <time name="diag">    0.08    0.08</time>
   <time name="diis">    0.28    0.29</time>
   <time name="orth">    0.01    0.01</time>
   <time name="total">    0.68    0.69</time>
   <energy>
    <i name="e_fr_energy">    -72.69670963 </i>
    <i name="e_wo_entrp">    -72.69670963 </i>
    <i name="e_0_energy">    -72.69670963 </i>
   </energy>
  </scstep>
  <scstep>
   <time name="diag">    0.07    0.07</time>
   <time name="diis">    0.29    0.29</time>
   <time name="orth">    0.01    0.01</time>
   <time name="total">    0.68    0.68</time>
   <energy>
    <i name="e_fr_energy">    -72.69300401 </i>
    <i name="e_wo_entrp">    -72.69300401 </i>
    <i name="e_0_energy">    -72.69300401 </i>
   </energy>
  </scstep>
  <scstep>
   <time name="diag">    0.07    0.07</time>
   <time name="diis">    0.30    0.30</time>
   <time name="orth">    0.01    0.01</time>
   <time name="total">    0.69    0.70</time>
   <energy>
    <i name="e_fr_energy">    -72.69310795 </i>
    <i name="e_wo_entrp">    -72.69310795 </i>
    <i name="e_0_energy">    -72.69310795 </i>
   </energy>
  </scstep>
  <scstep>
   <time name="diag">    0.07    0.07</time>
   <time name="diis">    0.26    0.26</time>
   <time name="orth">    0.01    0.01</time>
   <time name="total">    0.65    0.65</time>
   <energy>
    <i name="e_fr_energy">    -72.69287191 </i>
    <i name="e_wo_entrp">    -72.69287191 </i>
    <i name="e_0_energy">    -72.69287191 </i>
   </energy>
  </scstep>
  <scstep>
   <time name="diag">    0.07    0.07</time>
   <time name="diis">    0.18    0.18</time>
   <time name="orth">    0.01    0.01</time>
   <time name="total">    0.55    0.55</time>
   <energy>
    <i name="alphaZ">    119.46613832 </i>
    <i name="ewald">  -3575.12100444 </i>
    <i name="hartreedc">   -541.26809160 </i>
    <i name="XCdc">   -429.82378259 </i>
    <i name="pawpsdc">   6095.71062760 </i>
    <i name="pawaedc">  -5514.19499458 </i>
    <i name="eentropy">      0.00000000 </i>
    <i name="bandstr">    332.33876859 </i>
    <i name="atom">   3440.19946572 </i>
    <i name="e_fr_energy">    -72.69287299 </i>
    <i name="e_wo_entrp">    -72.69287299 </i>
    <i name="e_0_energy">    -72.69287299 </i>
   </energy>
  </scstep>
  <structure>
   <crystal>
    <varray name="basis" >
     <v>       6.54920000       0.00000000       0.00000000 </v>
     <v>       0.00000000       5.96893900      -2.80342700 </v>
     <v>       0.00000000       0.00000000       6.69510000 </v>
    </varray>
    <i name="volume">    261.72334480 </i>
    <varray name="rec_basis" >
     <v>       0.15269040       0.00000000       0.00000000 </v>
     <v>       0.00000000       0.16753396       0.00000000 </v>
     <v>       0.00000000       0.07015119       0.14936297 </v>
    </varray>
   </crystal>
   <varray name="positions" >
    <v>       0.13094785       0.84751896       0.12593044 </v>
    <v>       0.63094785       0.15248104       0.37406956 </v>
    <v>       0.86905215       0.15248104       0.87406956 </v>
    <v>       0.36905215       0.84751896       0.62593044 </v>
    <v>       0.64189465       0.65719294       0.82450329 </v>
    <v>       0.14189465       0.34280706       0.67549671 </v>
    <v>       0.35810535       0.34280706       0.17549671 </v>
    <v>       0.85810535       0.65719294       0.32450329 </v>
    <v>       0.49888637       0.72953410       0.21179524 </v>
    <v>      -0.00111363       0.27046590       0.28820476 </v>
    <v>       0.50111363       0.27046590       0.78820476 </v>
    <v>       0.00111363       0.72953410       0.71179524 </v>
   </varray>
  </structure>
  <varray name="forces" >
   <v>       0.18034670       0.10145980      -0.14143940 </v>
   <v>       0.18034670      -0.10145980       0.14143940 </v>
   <v>      -0.18034670      -0.10145980       0.14143940 </v>
   <v>      -0.18034670       0.10145980      -0.14143940 </v>
   <v>      -0.16849060      -0.07151589       0.05027483 </v>
   <v>      -0.16849060       0.07151589      -0.05027483 </v>
   <v>       0.16849060       0.07151589      -0.05027483 </v>
   <v>       0.16849060      -0.07151589       0.05027483 </v>
   <v>      -0.28302433      -0.11202746      -0.15276833 </v>
   <v>      -0.28302433       0.11202746       0.15276833 </v>
   <v>       0.28302433       0.11202746       0.15276833 </v>
   <v>       0.28302433      -0.11202746      -0.15276833 </v>
  </varray>
  <varray name="stress" >
   <v>      62.97576941       0.00000000       0.00000000 </v>
   <v>       0.00000000      51.60073025      -3.25060157 </v>
   <v>       0.00000000      -3.25060684      57.74234907 </v>
  </varray>
  <energy>
   <i name="e_fr_energy">    -72.69287299 </i>
   <i name="e_wo_entrp">    -72.69287299 </i>
   <i name="e_0_energy">      0.00000000 </i>
  </energy>
  <time name="totalsc">    6.54    6.56</time>
 </calculation>
 <calculation>
  <scstep>
   <time name="diag">    0.07    0.07</time>
   <time name="diis">    0.28    0.28</time>
   <time name="orth">    0.01    0.01</time>
   <time name="total">    0.68    0.68</time>
   <energy>
    <i name="alphaZ">    119.46613832 </i>
    <i name="ewald">  -3574.90205129 </i>
    <i name="hartreedc">   -541.45920014 </i>
    <i name="XCdc">   -429.82263357 </i>
    <i name="pawpsdc">   6095.15239367 </i>
    <i name="pawaedc">  -5513.63774284 </i>
    <i name="eentropy">      0.00000000 </i>
    <i name="bandstr">    332.31072853 </i>
    <i name="atom">   3440.19946572 </i>
    <i name="e_fr_energy">    -72.69290159 </i>
    <i name="e_wo_entrp">    -72.69290159 </i>
    <i name="e_0_energy">    -72.69290159 </i>
   </energy>
  </scstep>
  <scstep>
   <time name="diag">    0.07    0.07</time>
   <time name="diis">    0.23    0.23</time>
   <time name="orth">    0.01    0.01</time>
   <time name="total">    0.61    0.61</time>
   <energy>
    <i name="alphaZ">    119.46613832 </i>
    <i name="ewald">  -3574.90205129 </i>
    <i name="hartreedc">   -541.43117075 </i>
    <i name="XCdc">   -429.82314997 </i>
    <i name="pawpsdc">   6095.24181315 </i>
    <i name="pawaedc">  -5513.72840848 </i>
    <i name="eentropy">      0.00000000 </i>
    <i name="bandstr">    332.28441811 </i>
    <i name="atom">   3440.19946572 </i>
    <i name="e_fr_energy">    -72.69294518 </i>
    <i name="e_wo_entrp">    -72.69294518 </i>
    <i name="e_0_energy">    -72.69294518 </i>
   </energy>
  </scstep>
  <structure>
   <crystal>
    <varray name="basis" >
     <v>       6.54920000       0.00000000       0.00000000 </v>
     <v>       0.00000000       5.96893900      -2.80342700 </v>
     <v>       0.00000000       0.00000000       6.69510000 </v>
    </varray>
    <i name="volume">    261.72334480 </i>
    <varray name="rec_basis" >
     <v>       0.15269040       0.00000000       0.00000000 </v>
     <v>       0.00000000       0.16753396       0.00000000 </v>
     <v>       0.00000000       0.07015119       0.14936297 </v>
    </varray>
   </crystal>
   <varray name="positions" >
    <v>       0.13090701       0.84742423       0.12591093 </v>
    <v>       0.63090701       0.15257577       0.37408907 </v>
    <v>       0.86909299       0.15257577       0.87408907 </v>
    <v>       0.36909299       0.84742423       0.62591093 </v>
    <v>       0.64185493       0.65708407       0.82451370 </v>
    <v>       0.14185493       0.34291593       0.67548630 </v>
    <v>       0.35814507       0.34291593       0.17548630 </v>
    <v>       0.85814507       0.65708407       0.32451370 </v>
    <v>       0.49890972       0.72933423       0.21173664 </v>
    <v>      -0.00109028       0.27066577       0.28826336 </v>
    <v>       0.50109028       0.27066577       0.78826336 </v>
    <v>       0.00109028       0.72933423       0.71173664 </v>
   </varray>
  </structure>
  <varray name="forces" >
   <v>       0.18192057       0.11242157      -0.14133988 </v>
   <v>       0.18192057      -0.11242157       0.14133988 </v>
   <v>      -0.18192057      -0.11242157       0.14133988 </v>
   <v>      -0.18192057       0.11242157      -0.14133988 </v>
   <v>      -0.16048986      -0.05890083       0.04269636 </v>
   <v>      -0.16048986       0.05890083      -0.04269636 </v>
   <v>       0.16048986       0.05890083      -0.04269636 </v>
   <v>       0.16048986      -0.05890083       0.04269636 </v>
   <v>      -0.28539719      -0.05903753      -0.15673222 </v>
   <v>      -0.28539719       0.05903753       0.15673222 </v>
   <v>       0.28539719       0.05903753       0.15673222 </v>
   <v>       0.28539719      -0.05903753      -0.15673222 </v>
  </varray>
  <varray name="stress" >
   <v>      63.41151823       0.00000000       0.00000000 </v>
   <v>       0.00000000      52.10530041      -3.40808776 </v>
   <v>       0.00000000      -3.40809353      58.43459437 </v>
  </varray>
  <energy>
   <i name="e_fr_energy">    -72.69294518 </i>
   <i name="e_wo_entrp">    -72.69294518 </i>
   <i name="e_0_energy">      0.00000000 </i>
  </energy>
  <time name="totalsc">    2.50    2.50</time>
 </calculation>
 <calculation>
  <scstep>
   <time name="diag">    0.08    0.08</time>
   <time name="diis">    0.29    0.29</time>
   <time name="orth">    0.01    0.01</time>
   <time name="total">    0.69    0.69</time>
   <energy>
    <i name="alphaZ">    119.46613832 </i>
    <i name="ewald">  -3574.32057907 </i>
    <i name="hartreedc">   -542.05832029 </i>
    <i name="XCdc">   -429.81797316 </i>
    <i name="pawpsdc">   6095.29186197 </i>
    <i name="pawaedc">  -5513.77887330 </i>
    <i name="eentropy">      0.00000000 </i>
    <i name="bandstr">    332.31280316 </i>
    <i name="atom">   3440.19946572 </i>
    <i name="e_fr_energy">    -72.70547664 </i>
    <i name="e_wo_entrp">    -72.70547664 </i>
    <i name="e_0_energy">    -72.70547664 </i>
   </energy>
  </scstep>
  <scstep>
   <time name="diag">    0.07    0.07</time>
   <time name="diis">    0.30    0.30</time>
   <time name="orth">    0.01    0.01</time>
   <time name="total">    0.70    0.70</time>
   <energy>
    <i name="e_fr_energy">    -72.71506216 </i>
    <i name="e_wo_entrp">    -72.71506216 </i>
    <i name="e_0_energy">    -72.71506216 </i>
   </energy>
  </scstep>
  <scstep>
   <time name="diag">    0.08    0.08</time>
   <time name="diis">    0.36    0.36</time>
   <time name="orth">    0.01    0.01</time>
   <time name="total">    0.76    0.76</time>
   <energy>
    <i name="e_fr_energy">    -72.71563936 </i>
    <i name="e_wo_entrp">    -72.71563936 </i>
    <i name="e_0_energy">    -72.71563936 </i>
   </energy>
  </scstep>
  <scstep>
   <time name="diag">    0.07    0.07</time>
   <time name="diis">    0.20    0.20</time>
   <time name="orth">    0.01    0.01</time>
   <time name="total">    0.59    0.59</time>
   <energy>
    <i name="e_fr_energy">    -72.71536659 </i>
    <i name="e_wo_entrp">    -72.71536659 </i>
    <i name="e_0_energy">    -72.71536659 </i>
   </energy>
  </scstep>
  <scstep>
   <time name="diag">    0.07    0.07</time>
   <time name="diis">    0.27    0.27</time>
   <time name="orth">    0.01    0.01</time>
   <time name="total">    0.66    0.67</time>
   <energy>
    <i name="e_fr_energy">    -72.71521646 </i>
    <i name="e_wo_entrp">    -72.71521646 </i>
    <i name="e_0_energy">    -72.71521646 </i>
   </energy>
  </scstep>
  <scstep>
   <time name="diag">    0.07    0.07</time>
   <time name="diis">    0.17    0.18</time>
   <time name="orth">    0.01    0.01</time>
   <time name="total">    0.55    0.55</time>
   <energy>
    <i name="alphaZ">    119.46613832 </i>
    <i name="ewald">  -3574.32057907 </i>
    <i name="hartreedc">   -542.05414826 </i>
    <i name="XCdc">   -429.82192033 </i>
    <i name="pawpsdc">   6089.58455917 </i>
    <i name="pawaedc">  -5508.08482499 </i>
    <i name="eentropy">      0.00000000 </i>
    <i name="bandstr">    332.31612669 </i>
    <i name="atom">   3440.19946572 </i>
    <i name="e_fr_energy">    -72.71518275 </i>
    <i name="e_wo_entrp">    -72.71518275 </i>
    <i name="e_0_energy">    -72.71518275 </i>
   </energy>
  </scstep>
  <structure>
   <crystal>
    <varray name="basis" >
     <v>       6.54920000       0.00000000       0.00000000 </v>
     <v>       0.00000000       5.96893900      -2.80342700 </v>
     <v>       0.00000000       0.00000000       6.69510000 </v>
    </varray>
    <i name="volume">    261.72334480 </i>
    <varray name="rec_basis" >
     <v>       0.15269040       0.00000000       0.00000000 </v>
     <v>       0.00000000       0.16753396       0.00000000 </v>
     <v>       0.00000000       0.07015119       0.14936297 </v>
    </varray>
   </crystal>
   <varray name="positions" >
    <v>       0.13237702       0.84864356       0.12534038 </v>
    <v>       0.63237702       0.15135644       0.37465962 </v>
    <v>       0.86762298       0.15135644       0.87465962 </v>
    <v>       0.36762298       0.84864356       0.62534038 </v>
    <v>       0.64080956       0.65697144       0.82458700 </v>
    <v>       0.14080956       0.34302856       0.67541300 </v>
    <v>       0.35919044       0.34302856       0.17541300 </v>
    <v>       0.85919044       0.65697144       0.32458700 </v>
    <v>       0.49673873       0.72952264       0.21060760 </v>
    <v>      -0.00326127       0.27047736       0.28939240 </v>
    <v>       0.50326127       0.27047736       0.78939240 </v>
    <v>       0.00326127       0.72952264       0.71060760 </v>
   </varray>
  </structure>
  <varray name="forces" >
   <v>       0.02680801       0.05419902      -0.12930651 </v>
   <v>       0.02680801      -0.05419902       0.12930651 </v>
   <v>      -0.02680801      -0.05419902       0.12930651 </v>
   <v>      -0.02680801       0.05419902      -0.12930651 </v>
   <v>      -0.01657068      -0.01385761      -0.11055817 </v>
   <v>      -0.01657068       0.01385761       0.11055817 </v>
   <v>       0.01657068       0.01385761       0.11055817 </v>
   <v>       0.01657068      -0.01385761      -0.11055817 </v>
   <v>       0.01496248      -0.08171730      -0.00472922 </v>
   <v>       0.01496248       0.08171730       0.00472922 </v>
   <v>      -0.01496248       0.08171730       0.00472922 </v>
   <v>      -0.01496248      -0.08171730      -0.00472922 </v>
  </varray>
  <varray name="stress" >
   <v>      59.23756211       0.00000000       0.00000000 </v>
   <v>       0.00000000      52.87533213      -2.29735751 </v>
   <v>       0.00000000      -2.29736202      58.35463545 </v>
  </varray>
  <energy>
   <i name="e_fr_energy">    -72.71518275 </i>
   <i name="e_wo_entrp">    -72.71518275 </i>
   <i name="e_0_energy">      0.00000000 </i>
  </energy>
  <time name="totalsc">    5.17    5.19</time>
 </calculation>
 <calculation>
  <scstep>
   <time name="diag">    0.07    0.07</time>
   <time name="diis">    0.28    0.28</time>
   <time name="orth">    0.01    0.01</time>
   <time name="total">    0.67    0.68</time>
   <energy>
    <i name="alphaZ">    119.46613832 </i>
    <i name="ewald">  -3574.19593234 </i>
    <i name="hartreedc">   -542.16353779 </i>
    <i name="XCdc">   -429.82085694 </i>
    <i name="pawpsdc">   6089.54784414 </i>
    <i name="pawaedc">  -5508.04757883 </i>
    <i name="eentropy">      0.00000000 </i>
    <i name="bandstr">    332.29927490 </i>
    <i name="atom">   3440.19946572 </i>
    <i name="e_fr_energy">    -72.71518282 </i>
    <i name="e_wo_entrp">    -72.71518282 </i>
    <i name="e_0_energy">    -72.71518282 </i>
   </energy>
  </scstep>
  <scstep>
   <time name="diag">    0.07    0.07</time>
   <time name="diis">    0.28    0.28</time>
   <time name="orth">    0.01    0.01</time>
   <time name="total">    0.66    0.66</time>
   <energy>
    <i name="e_fr_energy">    -72.71550002 </i>
    <i name="e_wo_entrp">    -72.71550002 </i>
    <i name="e_0_energy">    -72.71550002 </i>
   </energy>
  </scstep>
  <scstep>
   <time name="diag">    0.07    0.07</time>
   <time name="diis">    0.17    0.17</time>
   <time name="orth">    0.01    0.01</time>
   <time name="total">    0.54    0.55</time>
   <energy>
    <i name="alphaZ">    119.46613832 </i>
    <i name="ewald">  -3574.19593234 </i>
    <i name="hartreedc">   -542.15083784 </i>
    <i name="XCdc">   -429.82132735 </i>
    <i name="pawpsdc">   6088.83669073 </i>
    <i name="pawaedc">  -5507.33733676 </i>
    <i name="eentropy">      0.00000000 </i>
    <i name="bandstr">    332.28762493 </i>
    <i name="atom">   3440.19946572 </i>
    <i name="e_fr_energy">    -72.71551459 </i>
    <i name="e_wo_entrp">    -72.71551459 </i>
    <i name="e_0_energy">    -72.71551459 </i>
   </energy>
  </scstep>
  <structure>
   <crystal>
    <varray name="basis" >
     <v>       6.54920000       0.00000000       0.00000000 </v>
     <v>       0.00000000       5.96893900      -2.80342700 </v>
     <v>       0.00000000       0.00000000       6.69510000 </v>
    </varray>
    <i name="volume">    261.72334480 </i>
    <varray name="rec_basis" >
     <v>       0.15269040       0.00000000       0.00000000 </v>
     <v>       0.00000000       0.16753396       0.00000000 </v>
     <v>       0.00000000       0.07015119       0.14936297 </v>
    </varray>
   </crystal>
   <varray name="positions" >
    <v>       0.13263426       0.84885693       0.12524054 </v>
    <v>       0.63263426       0.15114307       0.37475946 </v>
    <v>       0.86736574       0.15114307       0.87475946 </v>
    <v>       0.36736574       0.84885693       0.62524054 </v>
    <v>       0.64062663       0.65695173       0.82459982 </v>
    <v>       0.14062663       0.34304827       0.67540018 </v>
    <v>       0.35937337       0.34304827       0.17540018 </v>
    <v>       0.85937337       0.65695173       0.32459982 </v>
    <v>       0.49635883       0.72955561       0.21041003 </v>
    <v>      -0.00364117       0.27044439       0.28958997 </v>
    <v>       0.50364117       0.27044439       0.78958997 </v>
    <v>       0.00364117       0.72955561       0.71041003 </v>
   </varray>
  </structure>
  <varray name="forces" >
   <v>      -0.00287315       0.04619628      -0.12877661 </v>
   <v>      -0.00287315      -0.04619628       0.12877661 </v>
   <v>       0.00287315      -0.04619628       0.12877661 </v>
   <v>       0.00287315       0.04619628      -0.12877661 </v>
   <v>       0.00914671      -0.00558311      -0.13745545 </v>
   <v>       0.00914671       0.00558311       0.13745545 </v>
   <v>      -0.00914671       0.00558311       0.13745545 </v>
   <v>      -0.00914671      -0.00558311      -0.13745545 </v>
   <v>       0.09183522      -0.08181052       0.03581560 </v>
   <v>       0.09183522       0.08181052      -0.03581560 </v>
   <v>      -0.09183522       0.08181052      -0.03581560 </v>
   <v>      -0.09183522      -0.08181052       0.03581560 </v>
  </varray>
  <varray name="stress" >
   <v>      59.36292065       0.00000000       0.00000000 </v>
   <v>       0.00000000      53.53980178      -2.18349783 </v>
   <v>       0.00000000      -2.18350334      58.99284828 </v>
  </varray>
  <energy>
   <i name="e_fr_energy">    -72.71551459 </i>
   <i name="e_wo_entrp">    -72.71551459 </i>
   <i name="e_0_energy">      0.00000000 </i>
  </energy>
  <time name="totalsc">    3.04    3.05</time>
 </calculation>
 <calculation>
  <scstep>
   <time name="diag">    0.07    0.07</time>
   <time name="diis">    0.28    0.28</time>
   <time name="orth">    0.01    0.01</time>
   <time name="total">    0.66    0.66</time>
   <energy>
    <i name="alphaZ">    119.46613832 </i>
    <i name="ewald">  -3574.23561822 </i>
    <i name="hartreedc">   -542.10434308 </i>
    <i name="XCdc">   -429.82213927 </i>
    <i name="pawpsdc">   6088.69676089 </i>
    <i name="pawaedc">  -5507.19818470 </i>
    <i name="eentropy">      0.00000000 </i>
    <i name="bandstr">    332.28243184 </i>
    <i name="atom">   3440.19946572 </i>
    <i name="e_fr_energy">    -72.71548850 </i>
    <i name="e_wo_entrp">    -72.71548850 </i>
    <i name="e_0_energy">    -72.71548850 </i>
   </energy>
  </scstep>
  <scstep>
   <time name="diag">    0.07    0.07</time>
   <time name="diis">    0.18    0.18</time>
   <time name="orth">    0.01    0.01</time>
   <time name="total">    0.54    0.54</time>
   <energy>
    <i name="alphaZ">    119.46613832 </i>
    <i name="ewald">  -3574.23561822 </i>
    <i name="hartreedc">   -542.10656383 </i>
    <i name="XCdc">   -429.82208213 </i>
    <i name="pawpsdc">   6088.71394354 </i>
    <i name="pawaedc">  -5507.21529998 </i>
    <i name="eentropy">      0.00000000 </i>
    <i name="bandstr">    332.28450408 </i>
    <i name="atom">   3440.19946572 </i>
    <i name="e_fr_energy">    -72.71551251 </i>
    <i name="e_wo_entrp">    -72.71551251 </i>
    <i name="e_0_energy">    -72.71551251 </i>
   </energy>
  </scstep>
  <structure>
   <crystal>
    <varray name="basis" >
     <v>       6.54920000       0.00000000       0.00000000 </v>
     <v>       0.00000000       5.96893900      -2.80342700 </v>
     <v>       0.00000000       0.00000000       6.69510000 </v>
    </varray>
    <i name="volume">    261.72334480 </i>
    <varray name="rec_basis" >
     <v>       0.15269040       0.00000000       0.00000000 </v>
     <v>       0.00000000       0.16753396       0.00000000 </v>
     <v>       0.00000000       0.07015119       0.14936297 </v>
    </varray>
   </crystal>
   <varray name="positions" >
    <v>       0.13255386       0.84879023       0.12527175 </v>
    <v>       0.63255386       0.15120977       0.37472825 </v>
    <v>       0.86744614       0.15120977       0.87472825 </v>
    <v>       0.36744614       0.84879023       0.62527175 </v>
    <v>       0.64068381       0.65695789       0.82459581 </v>
    <v>       0.14068381       0.34304211       0.67540419 </v>
    <v>       0.35931619       0.34304211       0.17540419 </v>
    <v>       0.85931619       0.65695789       0.32459581 </v>
    <v>       0.49647758       0.72954530       0.21047178 </v>
    <v>      -0.00352242       0.27045470       0.28952822 </v>
    <v>       0.50352242       0.27045470       0.78952822 </v>
    <v>       0.00352242       0.72954530       0.71047178 </v>
   </varray>
  </structure>
  <varray name="forces" >
   <v>       0.00618267       0.04795176      -0.12834889 </v>
   <v>       0.00618267      -0.04795176       0.12834889 </v>
   <v>      -0.00618267      -0.04795176       0.12834889 </v>
   <v>      -0.00618267       0.04795176      -0.12834889 </v>
   <v>       0.00141178      -0.00832065      -0.12868875 </v>
   <v>       0.00141178       0.00832065       0.12868875 </v>
   <v>      -0.00141178       0.00832065       0.12868875 </v>
   <v>      -0.00141178      -0.00832065      -0.12868875 </v>
   <v>       0.03264071      -0.07821712       0.00306435 </v>
   <v>       0.03264071       0.07821712      -0.00306435 </v>
   <v>      -0.03264071       0.07821712      -0.00306435 </v>
   <v>      -0.03264071      -0.07821712       0.00306435 </v>
  </varray>
  <varray name="stress" >
   <v>      59.47155339       0.00000000       0.00000000 </v>
   <v>       0.00000000      53.55099524      -2.20660009 </v>
   <v>       0.00000000      -2.20660485      58.99884146 </v>
  </varray>
  <energy>
   <i name="e_fr_energy">    -72.71551251 </i>
   <i name="e_wo_entrp">    -72.71551251 </i>
   <i name="e_0_energy">      0.00000000 </i>
  </energy>
  <time name="totalsc">    2.35    2.35</time>
 </calculation>
 <calculation>
  <scstep>
   <time name="diag">    0.07    0.07</time>
   <time name="diis">    0.27    0.27</time>
   <time name="orth">    0.01    0.01</time>
   <time name="total">    0.65    0.65</time>
   <energy>
    <i name="alphaZ">    119.46613832 </i>
    <i name="ewald">  -3574.21528839 </i>
    <i name="hartreedc">   -542.12830239 </i>
    <i name="XCdc">   -429.82187201 </i>
    <i name="pawpsdc">   6088.67289998 </i>
    <i name="pawaedc">  -5507.17422606 </i>
    <i name="eentropy">      0.00000000 </i>
    <i name="bandstr">    332.28566187 </i>
    <i name="atom">   3440.19946572 </i>
    <i name="e_fr_energy">    -72.71552296 </i>
    <i name="e_wo_entrp">    -72.71552296 </i>
    <i name="e_0_energy">    -72.71552296 </i>
   </energy>
  </scstep>
  <scstep>
   <time name="diag">    0.07    0.07</time>
   <time name="diis">    0.17    0.17</time>
   <time name="orth">    0.01    0.01</time>
   <time name="total">    0.53    0.53</time>
   <energy>
    <i name="alphaZ">    119.46613832 </i>
    <i name="ewald">  -3574.21528839 </i>
    <i name="hartreedc">   -542.12954584 </i>
    <i name="XCdc">   -429.82188654 </i>
    <i name="pawpsdc">   6088.58275824 </i>
    <i name="pawaedc">  -5507.08417224 </i>
    <i name="eentropy">      0.00000000 </i>
    <i name="bandstr">    332.28700270 </i>
    <i name="atom">   3440.19946572 </i>
    <i name="e_fr_energy">    -72.71552804 </i>
    <i name="e_wo_entrp">    -72.71552804 </i>
    <i name="e_0_energy">    -72.71552804 </i>
   </energy>
  </scstep>
  <structure>
   <crystal>
    <varray name="basis" >
     <v>       6.54920000       0.00000000       0.00000000 </v>
     <v>       0.00000000       5.96893900      -2.80342700 </v>
     <v>       0.00000000       0.00000000       6.69510000 </v>
    </varray>
    <i name="volume">    261.72334480 </i>
    <varray name="rec_basis" >
     <v>       0.15269040       0.00000000       0.00000000 </v>
     <v>       0.00000000       0.16753396       0.00000000 </v>
     <v>       0.00000000       0.07015119       0.14936297 </v>
    </varray>
   </crystal>
   <varray name="positions" >
    <v>       0.13259521       0.84882454       0.12525570 </v>
    <v>       0.63259521       0.15117546       0.37474430 </v>
    <v>       0.86740479       0.15117546       0.87474430 </v>
    <v>       0.36740479       0.84882454       0.62525570 </v>
    <v>       0.64065440       0.65695472       0.82459788 </v>
    <v>       0.14065440       0.34304528       0.67540212 </v>
    <v>       0.35934560       0.34304528       0.17540212 </v>
    <v>       0.85934560       0.65695472       0.32459788 </v>
    <v>       0.49641650       0.72955060       0.21044002 </v>
    <v>      -0.00358350       0.27044940       0.28955998 </v>
    <v>       0.50358350       0.27044940       0.78955998 </v>
    <v>       0.00358350       0.72955060       0.71044002 </v>
   </varray>
  </structure>
  <varray name="forces" >
   <v>       0.00188222       0.04705894      -0.12864266 </v>
   <v>       0.00188222      -0.04705894       0.12864266 </v>
   <v>      -0.00188222      -0.04705894       0.12864266 </v>
   <v>      -0.00188222       0.04705894      -0.12864266 </v>
   <v>       0.00511382      -0.00700158      -0.13314983 </v>
   <v>       0.00511382       0.00700158       0.13314983 </v>
   <v>      -0.00511382       0.00700158       0.13314983 </v>
   <v>      -0.00511382      -0.00700158      -0.13314983 </v>
   <v>       0.07905723      -0.08173377       0.02889914 </v>
   <v>       0.07905723       0.08173377      -0.02889914 </v>
   <v>      -0.07905723       0.08173377      -0.02889914 </v>
   <v>      -0.07905723      -0.08173377       0.02889914 </v>
  </varray>
  <varray name="stress" >
   <v>      59.32120871       0.00000000       0.00000000 </v>
   <v>       0.00000000      53.45417105      -2.19241429 </v>
   <v>       0.00000000      -2.19241967      58.90319485 </v>
  </varray>
  <energy>
   <i name="e_fr_energy">    -72.71552804 </i>
   <i name="e_wo_entrp">    -72.71552804 </i>
   <i name="e_0_energy">      0.00000000 </i>
  </energy>
  <time name="totalsc">    2.35    2.36</time>
 </calculation>
 <calculation>
  <scstep>
   <time name="diag">    0.08    0.08</time>
   <time name="diis">    0.29    0.29</time>
   <time name="orth">    0.01    0.01</time>
   <time name="total">    0.69    0.69</time>
   <energy>
    <i name="alphaZ">    119.46613832 </i>
    <i name="ewald">  -3573.64187343 </i>
    <i name="hartreedc">   -542.69794284 </i>
    <i name="XCdc">   -429.81869565 </i>
    <i name="pawpsdc">   6088.56281262 </i>
    <i name="pawaedc">  -5507.06423482 </i>
    <i name="eentropy">      0.00000000 </i>
    <i name="bandstr">    332.27180598 </i>
    <i name="atom">   3440.19946572 </i>
    <i name="e_fr_energy">    -72.72252409 </i>
    <i name="e_wo_entrp">    -72.72252409 </i>
    <i name="e_0_energy">    -72.72252409 </i>
   </energy>
  </scstep>
  <scstep>
   <time name="diag">    0.07    0.07</time>
   <time name="diis">    0.30    0.30</time>
   <time name="orth">    0.01    0.01</time>
   <time name="total">    0.70    0.70</time>
   <energy>
    <i name="e_fr_energy">    -72.72347906 </i>
    <i name="e_wo_entrp">    -72.72347906 </i>
    <i name="e_0_energy">    -72.72347906 </i>
   </energy>
  </scstep>
  <scstep>
   <time name="diag">    0.07    0.07</time>
   <time name="diis">    0.25    0.25</time>
   <time name="orth">    0.01    0.01</time>
   <time name="total">    0.62    0.62</time>
   <energy>
    <i name="alphaZ">    119.46613832 </i>
    <i name="ewald">  -3573.64187343 </i>
    <i name="hartreedc">   -542.66718839 </i>
    <i name="XCdc">   -429.81948374 </i>
    <i name="pawpsdc">   6087.21737598 </i>
    <i name="pawaedc">  -5505.72396168 </i>
    <i name="eentropy">      0.00000000 </i>
    <i name="bandstr">    332.24602088 </i>
    <i name="atom">   3440.19946572 </i>
    <i name="e_fr_energy">    -72.72350634 </i>
    <i name="e_wo_entrp">    -72.72350634 </i>
    <i name="e_0_energy">    -72.72350634 </i>
   </energy>
  </scstep>
  <structure>
   <crystal>
    <varray name="basis" >
     <v>       6.54920000       0.00000000       0.00000000 </v>
     <v>       0.00000000       5.96893900      -2.80342700 </v>
     <v>       0.00000000       0.00000000       6.69510000 </v>
    </varray>
    <i name="volume">    261.72334480 </i>
    <varray name="rec_basis" >
     <v>       0.15269040       0.00000000       0.00000000 </v>
     <v>       0.00000000       0.16753396       0.00000000 </v>
     <v>       0.00000000       0.07015119       0.14936297 </v>
    </varray>
   </crystal>
   <varray name="positions" >
    <v>       0.13301218       0.84954860       0.12431221 </v>
    <v>       0.63301218       0.15045140       0.37568779 </v>
    <v>       0.86698782       0.15045140       0.87568779 </v>
    <v>       0.36698782       0.84954860       0.62431221 </v>
    <v>       0.64040661       0.65686584       0.82360989 </v>
    <v>       0.14040661       0.34313416       0.67639011 </v>
    <v>       0.35959339       0.34313416       0.17639011 </v>
    <v>       0.85959339       0.65686584       0.32360989 </v>
    <v>       0.49641883       0.72892487       0.21006059 </v>
    <v>      -0.00358117       0.27107513       0.28993941 </v>
    <v>       0.50358117       0.27107513       0.78993941 </v>
    <v>       0.00358117       0.72892487       0.71006059 </v>
   </varray>
  </structure>
  <varray name="forces" >
   <v>      -0.00311180       0.01463291      -0.06879022 </v>
   <v>      -0.00311180      -0.01463291       0.06879022 </v>
   <v>       0.00311180      -0.01463291       0.06879022 </v>
   <v>       0.00311180       0.01463291      -0.06879022 </v>
   <v>      -0.02105520       0.00525572      -0.11011343 </v>
   <v>      -0.02105520      -0.00525572       0.11011343 </v>
   <v>       0.02105520      -0.00525572       0.11011343 </v>
   <v>       0.02105520       0.00525572      -0.11011343 </v>
   <v>       0.07114627      -0.02370496      -0.02528054 </v>
   <v>       0.07114627       0.02370496       0.02528054 </v>
   <v>      -0.07114627       0.02370496       0.02528054 </v>
   <v>      -0.07114627      -0.02370496      -0.02528054 </v>
  </varray>
  <varray name="stress" >
   <v>      58.85159275       0.00000000       0.00000000 </v>
   <v>       0.00000000      53.94655148      -2.01309985 </v>
   <v>       0.00000000      -2.01310471      58.08092629 </v>
  </varray>
  <energy>
   <i name="e_fr_energy">    -72.72350634 </i>
   <i name="e_wo_entrp">    -72.72350634 </i>
   <i name="e_0_energy">      0.00000000 </i>
  </energy>
  <time name="totalsc">    3.17    3.18</time>
 </calculation>
 <calculation>
  <scstep>
   <time name="diag">    0.07    0.07</time>
   <time name="diis">    0.28    0.28</time>
   <time name="orth">    0.01    0.01</time>
   <time name="total">    0.67    0.68</time>
   <energy>
    <i name="alphaZ">    119.46613832 </i>
    <i name="ewald">  -3572.73914790 </i>
    <i name="hartreedc">   -543.54269537 </i>
    <i name="XCdc">   -429.81552918 </i>
    <i name="pawpsdc">   6086.56142452 </i>
    <i name="pawaedc">  -5505.07081731 </i>
    <i name="eentropy">      0.00000000 </i>
    <i name="bandstr">    332.21443998 </i>
    <i name="atom">   3440.19946572 </i>
    <i name="e_fr_energy">    -72.72672123 </i>
    <i name="e_wo_entrp">    -72.72672123 </i>
    <i name="e_0_energy">    -72.72672123 </i>
   </energy>
  </scstep>
  <scstep>
   <time name="diag">    0.07    0.07</time>
   <time name="diis">    0.30    0.30</time>
   <time name="orth">    0.01    0.01</time>
   <time name="total">    0.68    0.68</time>
   <energy>
    <i name="e_fr_energy">    -72.72911003 </i>
    <i name="e_wo_entrp">    -72.72911003 </i>
    <i name="e_0_energy">    -72.72911003 </i>
   </energy>
  </scstep>
  <scstep>
   <time name="diag">    0.07    0.07</time>
   <time name="diis">    0.32    0.32</time>
   <time name="orth">    0.01    0.01</time>
   <time name="total">    0.72    0.72</time>
   <energy>
    <i name="e_fr_energy">    -72.72919699 </i>
    <i name="e_wo_entrp">    -72.72919699 </i>
    <i name="e_0_energy">    -72.72919699 </i>
   </energy>
  </scstep>
  <scstep>
   <time name="diag">    0.07    0.07</time>
   <time name="diis">    0.20    0.20</time>
   <time name="orth">    0.01    0.01</time>
   <time name="total">    0.57    0.57</time>
   <energy>
    <i name="alphaZ">    119.46613832 </i>
    <i name="ewald">  -3572.73914790 </i>
    <i name="hartreedc">   -543.46330243 </i>
    <i name="XCdc">   -429.81803778 </i>
    <i name="pawpsdc">   6083.43910133 </i>
    <i name="pawaedc">  -5501.96074594 </i>
    <i name="eentropy">      0.00000000 </i>
    <i name="bandstr">    332.14738455 </i>
    <i name="atom">   3440.19946572 </i>
    <i name="e_fr_energy">    -72.72914414 </i>
    <i name="e_wo_entrp">    -72.72914414 </i>
    <i name="e_0_energy">    -72.72914414 </i>
   </energy>
  </scstep>
  <structure>
   <crystal>
    <varray name="basis" >
     <v>       6.54920000       0.00000000       0.00000000 </v>
     <v>       0.00000000       5.96893900      -2.80342700 </v>
     <v>       0.00000000       0.00000000       6.69510000 </v>
    </varray>
    <i name="volume">    261.72334480 </i>
    <varray name="rec_basis" >
     <v>       0.15269040       0.00000000       0.00000000 </v>
     <v>       0.00000000       0.16753396       0.00000000 </v>
     <v>       0.00000000       0.07015119       0.14936297 </v>
    </varray>
   </crystal>
   <varray name="positions" >
    <v>       0.13366575       0.85068353       0.12283334 </v>
    <v>       0.63366575       0.14931647       0.37716666 </v>
    <v>       0.86633425       0.14931647       0.87716666 </v>
    <v>       0.36633425       0.85068353       0.62283334 </v>
    <v>       0.64001823       0.65672652       0.82206126 </v>
    <v>       0.14001823       0.34327348       0.67793874 </v>
    <v>       0.35998177       0.34327348       0.17793874 </v>
    <v>       0.85998177       0.65672652       0.32206126 </v>
    <v>       0.49642248       0.72794406       0.20946584 </v>
    <v>      -0.00357752       0.27205594       0.29053416 </v>
    <v>       0.50357752       0.27205594       0.79053416 </v>
    <v>       0.00357752       0.72794406       0.70946584 </v>
   </varray>
  </structure>
  <varray name="forces" >
   <v>      -0.00755943      -0.03502802       0.02222955 </v>
   <v>      -0.00755943       0.03502802      -0.02222955 </v>
   <v>       0.00755943       0.03502802      -0.02222955 </v>
   <v>       0.00755943      -0.03502802       0.02222955 </v>
   <v>      -0.06212869       0.02298136      -0.07496859 </v>
   <v>      -0.06212869      -0.02298136       0.07496859 </v>
   <v>       0.06212869      -0.02298136       0.07496859 </v>
   <v>       0.06212869       0.02298136      -0.07496859 </v>
   <v>       0.07934265       0.02125115      -0.10371622 </v>
   <v>       0.07934265      -0.02125115       0.10371622 </v>
   <v>      -0.07934265      -0.02125115       0.10371622 </v>
   <v>      -0.07934265       0.02125115      -0.10371622 </v>
  </varray>
  <varray name="stress" >
   <v>      58.88028061       0.00000000       0.00000000 </v>
   <v>       0.00000000      55.36888025      -1.76705058 </v>
   <v>       0.00000000      -1.76705589      57.38295974 </v>
  </varray>
  <energy>
   <i name="e_fr_energy">    -72.72914414 </i>
   <i name="e_wo_entrp">    -72.72914414 </i>
   <i name="e_0_energy">      0.00000000 </i>
  </energy>
  <time name="totalsc">    3.82    3.83</time>
 </calculation>
 <calculation>
  <scstep>
   <time name="diag">    0.07    0.07</time>
   <time name="diis">    0.28    0.28</time>
   <time name="orth">    0.01    0.01</time>
   <time name="total">    0.67    0.67</time>
   <energy>
    <i name="alphaZ">    119.46613832 </i>
    <i name="ewald">  -3573.35639862 </i>
    <i name="hartreedc">   -543.02379759 </i>
    <i name="XCdc">   -429.83012233 </i>
    <i name="pawpsdc">   6082.86907428 </i>
    <i name="pawaedc">  -5501.39234749 </i>
    <i name="eentropy">      0.00000000 </i>
    <i name="bandstr">    332.33610323 </i>
    <i name="atom">   3440.19946572 </i>
    <i name="e_fr_energy">    -72.73188448 </i>
    <i name="e_wo_entrp">    -72.73188448 </i>
    <i name="e_0_energy">    -72.73188448 </i>
   </energy>
  </scstep>
  <scstep>
   <time name="diag">    0.07    0.07</time>
   <time name="diis">    0.29    0.29</time>
   <time name="orth">    0.01    0.01</time>
   <time name="total">    0.67    0.68</time>
   <energy>
    <i name="e_fr_energy">    -72.73484573 </i>
    <i name="e_wo_entrp">    -72.73484573 </i>
    <i name="e_0_energy">    -72.73484573 </i>
   </energy>
  </scstep>
  <scstep>
   <time name="diag">    0.07    0.07</time>
   <time name="diis">    0.34    0.34</time>
   <time name="orth">    0.01    0.01</time>
   <time name="total">    0.74    0.74</time>
   <energy>
    <i name="e_fr_energy">    -72.73504481 </i>
    <i name="e_wo_entrp">    -72.73504481 </i>
    <i name="e_0_energy">    -72.73504481 </i>
   </energy>
  </scstep>
  <scstep>
   <time name="diag">    0.07    0.07</time>
   <time name="diis">    0.18    0.18</time>
   <time name="orth">    0.01    0.01</time>
   <time name="total">    0.55    0.55</time>
   <energy>
    <i name="alphaZ">    119.46613832 </i>
    <i name="ewald">  -3573.35639862 </i>
    <i name="hartreedc">   -542.97080535 </i>
    <i name="XCdc">   -429.83070758 </i>
    <i name="pawpsdc">   6081.19690341 </i>
    <i name="pawaedc">  -5499.70862462 </i>
    <i name="eentropy">      0.00000000 </i>
    <i name="bandstr">    332.26907647 </i>
    <i name="atom">   3440.19946572 </i>
    <i name="e_fr_energy">    -72.73495225 </i>
    <i name="e_wo_entrp">    -72.73495225 </i>
    <i name="e_0_energy">    -72.73495225 </i>
   </energy>
  </scstep>
  <structure>
   <crystal>
    <varray name="basis" >
     <v>       6.54920000       0.00000000       0.00000000 </v>
     <v>       0.00000000       5.96893900      -2.80342700 </v>
     <v>       0.00000000       0.00000000       6.69510000 </v>
    </varray>
    <i name="volume">    261.72334480 </i>
    <varray name="rec_basis" >
     <v>       0.15269040       0.00000000       0.00000000 </v>
     <v>       0.00000000       0.16753396       0.00000000 </v>
     <v>       0.00000000       0.07015119       0.14936297 </v>
    </varray>
   </crystal>
   <varray name="positions" >
    <v>       0.13383851       0.85073246       0.12232880 </v>
    <v>       0.63383851       0.14926754       0.37767120 </v>
    <v>       0.86616149       0.14926754       0.87767120 </v>
    <v>       0.36616149       0.85073246       0.62232880 </v>
    <v>       0.63925463       0.65692386       0.82085141 </v>
[...]
        <r>  0.0002  0.0084  0.0021  0.0088  0.0007  0.0001  0.0008  0.0006  0.0001 </r>
        <r>  0.0006  0.0015  0.0010  0.0014  0.0003  0.0001  0.0002  0.0001  0.0000 </r>
        <r>  0.0002  0.0084  0.0021  0.0088  0.0007  0.0001  0.0008  0.0006  0.0001 </r>
        <r>  0.0006  0.0015  0.0010  0.0014  0.0003  0.0001  0.0002  0.0001  0.0000 </r>
        <r>  0.0011  0.0007  0.0063  0.0015  0.0111  0.0412  0.0619  0.0086  0.0067 </r>
        <r>  0.0007  0.0029  0.0028  0.0040  0.0853  0.0072  0.0131  0.0574  0.0360 </r>
        <r>  0.0011  0.0007  0.0063  0.0015  0.0111  0.0412  0.0619  0.0086  0.0067 </r>
        <r>  0.0007  0.0029  0.0028  0.0040  0.0853  0.0072  0.0131  0.0574  0.0360 </r>
       </set>
       <set comment="band 31">
        <r>  0.0016  0.0052  0.0011  0.0069  0.0003  0.0001  0.0000  0.0000  0.0001 </r>
        <r>  0.0013  0.0150  0.0009  0.0035  0.0000  0.0000  0.0001  0.0005  0.0006 </r>
        <r>  0.0016  0.0052  0.0011  0.0069  0.0003  0.0001  0.0000  0.0000  0.0001 </r>
        <r>  0.0013  0.0150  0.0009  0.0035  0.0000  0.0000  0.0001  0.0005  0.0006 </r>
        <r>  0.0011  0.0022  0.0012  0.0062  0.0006  0.0001  0.0000  0.0000  0.0002 </r>
        <r>  0.0022  0.0096  0.0086  0.0062  0.0010  0.0001  0.0006  0.0001  0.0000 </r>
        <r>  0.0011  0.0022  0.0012  0.0062  0.0006  0.0001  0.0000  0.0000  0.0002 </r>
        <r>  0.0022  0.0096  0.0086  0.0062  0.0010  0.0001  0.0006  0.0001  0.0000 </r>
        <r>  0.0038  0.0034  0.0002  0.0067  0.0122  0.0429  0.0026  0.0247  0.0257 </r>
        <r>  0.0016  0.0025  0.0077  0.0075  0.0867  0.0042  0.0483  0.0005  0.0226 </r>
        <r>  0.0038  0.0034  0.0002  0.0067  0.0122  0.0429  0.0026  0.0247  0.0257 </r>
        <r>  0.0016  0.0025  0.0077  0.0075  0.0867  0.0042  0.0483  0.0005  0.0226 </r>
       </set>
       <set comment="band 32">
        <r>  0.0003  0.0069  0.0073  0.0003  0.0005  0.0000  0.0001  0.0001  0.0004 </r>
        <r>  0.0024  0.0113  0.0003  0.0083  0.0002  0.0001  0.0005  0.0005  0.0001 </r>
        <r>  0.0003  0.0069  0.0073  0.0003  0.0005  0.0000  0.0001  0.0001  0.0004 </r>
        <r>  0.0024  0.0113  0.0003  0.0083  0.0002  0.0001  0.0005  0.0005  0.0001 </r>
        <r>  0.0003  0.0068  0.0079  0.0002  0.0001  0.0003  0.0001  0.0000  0.0001 </r>
        <r>  0.0004  0.0251  0.0094  0.0014  0.0002  0.0005  0.0002  0.0003  0.0002 </r>
        <r>  0.0003  0.0068  0.0079  0.0002  0.0001  0.0003  0.0001  0.0000  0.0001 </r>
        <r>  0.0004  0.0251  0.0094  0.0014  0.0002  0.0005  0.0002  0.0003  0.0002 </r>
        <r>  0.0049  0.0087  0.0003  0.0026  0.0957  0.0408  0.0135  0.0106  0.0360 </r>
        <r>  0.0017  0.0060  0.0111  0.0093  0.0055  0.0018  0.0111  0.0011  0.0004 </r>
        <r>  0.0049  0.0087  0.0003  0.0026  0.0957  0.0408  0.0135  0.0106  0.0360 </r>
        <r>  0.0017  0.0060  0.0111  0.0093  0.0055  0.0018  0.0111  0.0011  0.0004 </r>
       </set>
       <set comment="band 33">
        <r>  0.0034  0.0027  0.0091  0.0184  0.0002  0.0002  0.0003  0.0001  0.0003 </r>
        <r>  0.0000  0.0033  0.0045  0.0236  0.0006  0.0003  0.0005  0.0000  0.0000 </r>
        <r>  0.0034  0.0027  0.0091  0.0184  0.0002  0.0002  0.0003  0.0001  0.0003 </r>
        <r>  0.0000  0.0033  0.0045  0.0236  0.0006  0.0003  0.0005  0.0000  0.0000 </r>
        <r>  0.0047  0.0027  0.0016  0.0161  0.0003  0.0000  0.0003  0.0016  0.0001 </r>
        <r>  0.0085  0.0005  0.0001  0.0127  0.0002  0.0000  0.0001  0.0004  0.0005 </r>
        <r>  0.0047  0.0027  0.0016  0.0161  0.0003  0.0000  0.0003  0.0016  0.0001 </r>
        <r>  0.0085  0.0005  0.0001  0.0127  0.0002  0.0000  0.0001  0.0004  0.0005 </r>
        <r>  0.0044  0.0021  0.0005  0.0105  0.0008  0.0409  0.0006  0.0139  0.0070 </r>
        <r>  0.0027  0.0039  0.0079  0.0095  0.0041  0.0368  0.0092  0.0545  0.0243 </r>
        <r>  0.0044  0.0021  0.0005  0.0105  0.0008  0.0409  0.0006  0.0139  0.0070 </r>
        <r>  0.0027  0.0039  0.0079  0.0095  0.0041  0.0368  0.0092  0.0545  0.0243 </r>
       </set>
       <set comment="band 34">
        <r>  0.0002  0.0146  0.0060  0.0100  0.0004  0.0004  0.0002  0.0002  0.0007 </r>
        <r>  0.0015  0.0005  0.0043  0.0048  0.0003  0.0002  0.0005  0.0000  0.0001 </r>
        <r>  0.0002  0.0146  0.0060  0.0100  0.0004  0.0004  0.0002  0.0002  0.0007 </r>
        <r>  0.0015  0.0005  0.0043  0.0048  0.0003  0.0002  0.0005  0.0000  0.0001 </r>
        <r>  0.0013  0.0000  0.0009  0.0010  0.0004  0.0001  0.0000  0.0004  0.0001 </r>
        <r>  0.0015  0.0048  0.0073  0.0123  0.0004  0.0001  0.0004  0.0005  0.0000 </r>
        <r>  0.0013  0.0000  0.0009  0.0010  0.0004  0.0001  0.0000  0.0004  0.0001 </r>
        <r>  0.0015  0.0048  0.0073  0.0123  0.0004  0.0001  0.0004  0.0005  0.0000 </r>
        <r>  0.0022  0.0026  0.0019  0.0040  0.0216  0.0642  0.0080  0.0019  0.0176 </r>
        <r>  0.0050  0.0064  0.0006  0.0013  0.0074  0.1062  0.0204  0.0070  0.0374 </r>
        <r>  0.0022  0.0026  0.0019  0.0040  0.0216  0.0642  0.0080  0.0019  0.0176 </r>
        <r>  0.0050  0.0064  0.0006  0.0013  0.0074  0.1062  0.0204  0.0070  0.0374 </r>
       </set>
       <set comment="band 35">
        <r>  0.0037  0.0003  0.0179  0.0004  0.0003  0.0007  0.0012  0.0005  0.0000 </r>
        <r>  0.0014  0.0002  0.0149  0.0017  0.0000  0.0003  0.0000  0.0002  0.0000 </r>
        <r>  0.0037  0.0003  0.0179  0.0004  0.0003  0.0007  0.0012  0.0005  0.0000 </r>
        <r>  0.0014  0.0002  0.0149  0.0017  0.0000  0.0003  0.0000  0.0002  0.0000 </r>
        <r>  0.0025  0.0000  0.0113  0.0019  0.0003  0.0002  0.0001  0.0005  0.0000 </r>
        <r>  0.0039  0.0041  0.0093  0.0009  0.0002  0.0001  0.0001  0.0002  0.0003 </r>
        <r>  0.0025  0.0000  0.0113  0.0019  0.0003  0.0002  0.0001  0.0005  0.0000 </r>
        <r>  0.0039  0.0041  0.0093  0.0009  0.0002  0.0001  0.0001  0.0002  0.0003 </r>
        <r>  0.0076  0.0003  0.0053  0.0002  0.0072  0.0281  0.0223  0.0235  0.0110 </r>
        <r>  0.0095  0.0018  0.0125  0.0013  0.0003  0.1236  0.0161  0.0049  0.0460 </r>
        <r>  0.0076  0.0003  0.0053  0.0002  0.0072  0.0281  0.0223  0.0235  0.0110 </r>
        <r>  0.0095  0.0018  0.0125  0.0013  0.0003  0.1236  0.0161  0.0049  0.0460 </r>
       </set>
       <set comment="band 36">
        <r>  0.0048  0.0034  0.0110  0.0337  0.0006  0.0001  0.0005  0.0002  0.0001 </r>
        <r>  0.0004  0.0002  0.0019  0.0032  0.0004  0.0001  0.0002  0.0001  0.0001 </r>
        <r>  0.0048  0.0034  0.0110  0.0337  0.0006  0.0001  0.0005  0.0002  0.0001 </r>
        <r>  0.0004  0.0002  0.0019  0.0032  0.0004  0.0001  0.0002  0.0001  0.0001 </r>
        <r>  0.0002  0.0008  0.0037  0.0015  0.0007  0.0000  0.0000  0.0001  0.0001 </r>
        <r>  0.0087  0.0019  0.0033  0.0251  0.0001  0.0006  0.0006  0.0007  0.0001 </r>
        <r>  0.0002  0.0008  0.0037  0.0015  0.0007  0.0000  0.0000  0.0001  0.0001 </r>
        <r>  0.0087  0.0019  0.0033  0.0251  0.0001  0.0006  0.0006  0.0007  0.0001 </r>
        <r>  0.0000  0.0030  0.0032  0.0118  0.0228  0.0119  0.0118  0.0170  0.0647 </r>
        <r>  0.0006  0.0012  0.0015  0.0018  0.0553  0.0163  0.0069  0.0130  0.0174 </r>
        <r>  0.0000  0.0030  0.0032  0.0118  0.0228  0.0119  0.0118  0.0170  0.0647 </r>
        <r>  0.0006  0.0012  0.0015  0.0018  0.0553  0.0163  0.0069  0.0130  0.0174 </r>
       </set>
       <set comment="band 37">
        <r>  0.0019  0.0057  0.0030  0.0056  0.0004  0.0000  0.0002  0.0001  0.0000 </r>
        <r>  0.0007  0.0072  0.0010  0.0516  0.0007  0.0000  0.0007  0.0002  0.0001 </r>
        <r>  0.0019  0.0057  0.0030  0.0056  0.0004  0.0000  0.0002  0.0001  0.0000 </r>
        <r>  0.0007  0.0072  0.0010  0.0516  0.0007  0.0000  0.0007  0.0002  0.0001 </r>
        <r>  0.0008  0.0005  0.0029  0.0360  0.0001  0.0003  0.0001  0.0003  0.0001 </r>
        <r>  0.0040  0.0143  0.0006  0.0103  0.0000  0.0001  0.0005  0.0001  0.0001 </r>
        <r>  0.0008  0.0005  0.0029  0.0360  0.0001  0.0003  0.0001  0.0003  0.0001 </r>
        <r>  0.0040  0.0143  0.0006  0.0103  0.0000  0.0001  0.0005  0.0001  0.0001 </r>
        <r>  0.0038  0.0050  0.0089  0.0044  0.0078  0.0387  0.0030  0.0052  0.0038 </r>
        <r>  0.0047  0.0011  0.0009  0.0319  0.0306  0.0019  0.0086  0.0105  0.0087 </r>
        <r>  0.0038  0.0050  0.0089  0.0044  0.0078  0.0387  0.0030  0.0052  0.0038 </r>
        <r>  0.0047  0.0011  0.0009  0.0319  0.0306  0.0019  0.0086  0.0105  0.0087 </r>
       </set>
       <set comment="band 38">
        <r>  0.0036  0.0020  0.0087  0.0092  0.0002  0.0006  0.0001  0.0003  0.0004 </r>
        <r>  0.0027  0.0055  0.0274  0.0099  0.0000  0.0013  0.0002  0.0003  0.0000 </r>
        <r>  0.0036  0.0020  0.0087  0.0092  0.0002  0.0006  0.0001  0.0003  0.0004 </r>
        <r>  0.0027  0.0055  0.0274  0.0099  0.0000  0.0013  0.0002  0.0003  0.0000 </r>
        <r>  0.0015  0.0036  0.0158  0.0280  0.0000  0.0001  0.0000  0.0004  0.0003 </r>
        <r>  0.0013  0.0005  0.0147  0.0149  0.0002  0.0003  0.0002  0.0003  0.0003 </r>
        <r>  0.0015  0.0036  0.0158  0.0280  0.0000  0.0001  0.0000  0.0004  0.0003 </r>
        <r>  0.0013  0.0005  0.0147  0.0149  0.0002  0.0003  0.0002  0.0003  0.0003 </r>
        <r>  0.0051  0.0043  0.0264  0.0005  0.0032  0.0226  0.0103  0.0040  0.0023 </r>
        <r>  0.0012  0.0007  0.0063  0.0114  0.0293  0.0152  0.0086  0.0113  0.0101 </r>
        <r>  0.0051  0.0043  0.0264  0.0005  0.0032  0.0226  0.0103  0.0040  0.0023 </r>
        <r>  0.0012  0.0007  0.0063  0.0114  0.0293  0.0152  0.0086  0.0113  0.0101 </r>
       </set>
       <set comment="band 39">
        <r>  0.0019  0.0069  0.0040  0.0002  0.0002  0.0000  0.0002  0.0000  0.0000 </r>
        <r>  0.0521  0.0047  0.0129  0.0074  0.0002  0.0003  0.0002  0.0003  0.0000 </r>
        <r>  0.0019  0.0069  0.0040  0.0002  0.0002  0.0000  0.0002  0.0000  0.0000 </r>
        <r>  0.0521  0.0047  0.0129  0.0074  0.0002  0.0003  0.0002  0.0003  0.0000 </r>
        <r>  0.0388  0.0046  0.0061  0.0037  0.0001  0.0008  0.0009  0.0009  0.0011 </r>
        <r>  0.0006  0.0016  0.0016  0.0010  0.0000  0.0001  0.0000  0.0001  0.0003 </r>
        <r>  0.0388  0.0046  0.0061  0.0037  0.0001  0.0008  0.0009  0.0009  0.0011 </r>
        <r>  0.0006  0.0016  0.0016  0.0010  0.0000  0.0001  0.0000  0.0001  0.0003 </r>
        <r>  0.0017  0.0024  0.0012  0.0012  0.0122  0.0091  0.1103  0.0103  0.0156 </r>
        <r>  0.0139  0.0018  0.0005  0.0001  0.0072  0.0001  0.0010  0.0340  0.0253 </r>
        <r>  0.0017  0.0024  0.0012  0.0012  0.0122  0.0091  0.1103  0.0103  0.0156 </r>
        <r>  0.0139  0.0018  0.0005  0.0001  0.0072  0.0001  0.0010  0.0340  0.0253 </r>
       </set>
       <set comment="band 40">
        <r>  0.0003  0.0067  0.0010  0.0026  0.0001  0.0001  0.0008  0.0003  0.0010 </r>
        <r>  0.0096  0.0150  0.0165  0.0005  0.0003  0.0003  0.0005  0.0002  0.0004 </r>
        <r>  0.0003  0.0067  0.0010  0.0026  0.0001  0.0001  0.0008  0.0003  0.0010 </r>
        <r>  0.0096  0.0150  0.0165  0.0005  0.0003  0.0003  0.0005  0.0002  0.0004 </r>
        <r>  0.0044  0.0431  0.0262  0.0026  0.0000  0.0000  0.0003  0.0002  0.0000 </r>
        <r>  0.0008  0.0254  0.0056  0.0004  0.0004  0.0002  0.0002  0.0000  0.0001 </r>
        <r>  0.0044  0.0431  0.0262  0.0026  0.0000  0.0000  0.0003  0.0002  0.0000 </r>
        <r>  0.0008  0.0254  0.0056  0.0004  0.0004  0.0002  0.0002  0.0000  0.0001 </r>
        <r>  0.0056  0.0079  0.0046  0.0001  0.0012  0.0347  0.0098  0.0051  0.0111 </r>
        <r>  0.0010  0.0064  0.0028  0.0005  0.0085  0.0264  0.0028  0.0091  0.0206 </r>
        <r>  0.0056  0.0079  0.0046  0.0001  0.0012  0.0347  0.0098  0.0051  0.0111 </r>
        <r>  0.0010  0.0064  0.0028  0.0005  0.0085  0.0264  0.0028  0.0091  0.0207 </r>
       </set>
       <set comment="band 41">
        <r>  0.0204  0.0025  0.0106  0.0248  0.0004  0.0001  0.0002  0.0005  0.0001 </r>
        <r>  0.0151  0.0024  0.0109  0.0108  0.0004  0.0000  0.0003  0.0002  0.0009 </r>
        <r>  0.0204  0.0025  0.0106  0.0248  0.0004  0.0001  0.0002  0.0005  0.0001 </r>
        <r>  0.0151  0.0024  0.0109  0.0108  0.0004  0.0000  0.0003  0.0002  0.0009 </r>
        <r>  0.0193  0.0128  0.0007  0.0045  0.0002  0.0009  0.0003  0.0001  0.0016 </r>
        <r>  0.0024  0.0033  0.0001  0.0025  0.0001  0.0002  0.0012  0.0004  0.0010 </r>
        <r>  0.0193  0.0128  0.0007  0.0045  0.0002  0.0009  0.0003  0.0001  0.0016 </r>
        <r>  0.0024  0.0033  0.0001  0.0025  0.0001  0.0002  0.0012  0.0004  0.0010 </r>
        <r>  0.0090  0.0004  0.0002  0.0053  0.0220  0.0036  0.0057  0.0240  0.0067 </r>
        <r>  0.0112  0.0038  0.0042  0.0004  0.0003  0.0031  0.0640  0.0051  0.0332 </r>
        <r>  0.0090  0.0004  0.0002  0.0053  0.0220  0.0036  0.0057  0.0240  0.0067 </r>
        <r>  0.0112  0.0038  0.0042  0.0004  0.0003  0.0031  0.0640  0.0051  0.0332 </r>
       </set>
       <set comment="band 42">
        <r>  0.0031  0.0017  0.0069  0.0010  0.0004  0.0001  0.0011  0.0001  0.0015 </r>
        <r>  0.0046  0.0143  0.0039  0.0079  0.0003  0.0000  0.0019  0.0004  0.0002 </r>
        <r>  0.0031  0.0017  0.0069  0.0010  0.0004  0.0001  0.0011  0.0001  0.0015 </r>
        <r>  0.0046  0.0143  0.0039  0.0079  0.0003  0.0000  0.0019  0.0004  0.0002 </r>
        <r>  0.0164  0.0082  0.0064  0.0003  0.0001  0.0011  0.0004  0.0001  0.0005 </r>
        <r>  0.0206  0.0241  0.0162  0.0088  0.0002  0.0003  0.0008  0.0002  0.0002 </r>
        <r>  0.0164  0.0082  0.0064  0.0003  0.0001  0.0011  0.0004  0.0001  0.0005 </r>
        <r>  0.0206  0.0241  0.0162  0.0088  0.0002  0.0003  0.0008  0.0002  0.0002 </r>
        <r>  0.0024  0.0019  0.0001  0.0041  0.0189  0.0086  0.0197  0.0152  0.0255 </r>
        <r>  0.0158  0.0037  0.0045  0.0003  0.0155  0.0025  0.0400  0.0039  0.0053 </r>
        <r>  0.0024  0.0019  0.0001  0.0041  0.0189  0.0086  0.0197  0.0152  0.0255 </r>
        <r>  0.0158  0.0037  0.0045  0.0003  0.0155  0.0025  0.0400  0.0039  0.0053 </r>
       </set>
       <set comment="band 43">
        <r>  0.0117  0.0048  0.0103  0.0110  0.0014  0.0004  0.0004  0.0001  0.0023 </r>
        <r>  0.0082  0.0188  0.0067  0.0003  0.0001  0.0006  0.0001  0.0000  0.0006 </r>
        <r>  0.0117  0.0048  0.0103  0.0110  0.0014  0.0004  0.0004  0.0001  0.0023 </r>
        <r>  0.0082  0.0188  0.0067  0.0003  0.0001  0.0006  0.0001  0.0000  0.0006 </r>
        <r>  0.0015  0.0179  0.0009  0.0116  0.0004  0.0003  0.0005  0.0003  0.0015 </r>
        <r>  0.0104  0.0185  0.0105  0.0126  0.0005  0.0026  0.0009  0.0003  0.0002 </r>
        <r>  0.0015  0.0179  0.0009  0.0116  0.0004  0.0003  0.0005  0.0003  0.0015 </r>
        <r>  0.0104  0.0185  0.0105  0.0126  0.0005  0.0026  0.0009  0.0003  0.0002 </r>
        <r>  0.0044  0.0056  0.0021  0.0090  0.0034  0.0021  0.0029  0.0103  0.0254 </r>
        <r>  0.0121  0.0046  0.0033  0.0011  0.0053  0.0117  0.0155  0.0076  0.0295 </r>
        <r>  0.0044  0.0056  0.0021  0.0090  0.0034  0.0021  0.0029  0.0103  0.0254 </r>
        <r>  0.0121  0.0046  0.0033  0.0011  0.0053  0.0117  0.0155  0.0076  0.0296 </r>
       </set>
       <set comment="band 44">
        <r>  0.0099  0.0005  0.0217  0.0079  0.0007  0.0002  0.0030  0.0004  0.0006 </r>
        <r>  0.0039  0.0080  0.0004  0.0125  0.0011  0.0006  0.0014  0.0019  0.0001 </r>
        <r>  0.0099  0.0005  0.0217  0.0079  0.0007  0.0002  0.0030  0.0004  0.0006 </r>
        <r>  0.0039  0.0080  0.0004  0.0125  0.0011  0.0006  0.0014  0.0019  0.0001 </r>
        <r>  0.0019  0.0031  0.0034  0.0227  0.0000  0.0008  0.0002  0.0002  0.0011 </r>
        <r>  0.0095  0.0151  0.0004  0.0012  0.0004  0.0004  0.0024  0.0008  0.0036 </r>
        <r>  0.0019  0.0031  0.0034  0.0228  0.0000  0.0008  0.0002  0.0002  0.0011 </r>
        <r>  0.0095  0.0151  0.0004  0.0012  0.0004  0.0004  0.0024  0.0008  0.0036 </r>
        <r>  0.0108  0.0001  0.0004  0.0086  0.0003  0.0003  0.0233  0.0022  0.0356 </r>
        <r>  0.0169  0.0013  0.0036  0.0005  0.0115  0.0020  0.0068  0.0286  0.0130 </r>
        <r>  0.0108  0.0001  0.0004  0.0086  0.0003  0.0003  0.0233  0.0022  0.0356 </r>
        <r>  0.0169  0.0013  0.0036  0.0005  0.0115  0.0020  0.0068  0.0286  0.0130 </r>
       </set>
       <set comment="band 45">
        <r>  0.0095  0.0217  0.0001  0.0073  0.0016  0.0006  0.0014  0.0016  0.0007 </r>
        <r>  0.0027  0.0202  0.0020  0.0030  0.0005  0.0000  0.0006  0.0005  0.0009 </r>
        <r>  0.0096  0.0213  0.0002  0.0072  0.0016  0.0006  0.0014  0.0017  0.0007 </r>
        <r>  0.0027  0.0206  0.0019  0.0029  0.0005  0.0000  0.0005  0.0005  0.0009 </r>
        <r>  0.0003  0.0054  0.0057  0.0067  0.0006  0.0006  0.0028  0.0001  0.0006 </r>
        <r>  0.0002  0.0006  0.0242  0.0186  0.0008  0.0012  0.0019  0.0002  0.0003 </r>
        <r>  0.0004  0.0055  0.0056  0.0069  0.0007  0.0006  0.0028  0.0001  0.0006 </r>
        <r>  0.0002  0.0006  0.0243  0.0184  0.0008  0.0012  0.0018  0.0002  0.0003 </r>
        <r>  0.0035  0.0043  0.0039  0.0067  0.0223  0.0029  0.0078  0.0037  0.0359 </r>
        <r>  0.0007  0.0040  0.0087  0.0010  0.0231  0.0001  0.0350  0.0027  0.0065 </r>
        <r>  0.0034  0.0044  0.0038  0.0068  0.0223  0.0030  0.0077  0.0035  0.0361 </r>
        <r>  0.0007  0.0040  0.0088  0.0010  0.0228  0.0001  0.0345  0.0026  0.0063 </r>
       </set>
       <set comment="band 46">
        <r>  0.0005  0.0611  0.0107  0.0008  0.0000  0.0008  0.0017  0.0001  0.0018 </r>
        <r>  0.0011  0.0024  0.0020  0.0105  0.0006  0.0005  0.0001  0.0001  0.0024 </r>
        <r>  0.0005  0.0614  0.0106  0.0008  0.0000  0.0008  0.0017  0.0001  0.0018 </r>
        <r>  0.0011  0.0023  0.0021  0.0105  0.0006  0.0005  0.0001  0.0000  0.0025 </r>
        <r>  0.0050  0.0180  0.0060  0.0042  0.0003  0.0009  0.0004  0.0002  0.0001 </r>
        <r>  0.0025  0.0218  0.0003  0.0024  0.0019  0.0025  0.0025  0.0003  0.0015 </r>
        <r>  0.0050  0.0181  0.0059  0.0041  0.0003  0.0009  0.0004  0.0002  0.0001 </r>
        <r>  0.0025  0.0219  0.0003  0.0024  0.0019  0.0024  0.0024  0.0003  0.0015 </r>
        <r>  0.0014  0.0040  0.0000  0.0025  0.0045  0.0109  0.0134  0.0162  0.0134 </r>
        <r>  0.0239  0.0103  0.0001  0.0000  0.0025  0.0059  0.0062  0.0041  0.0187 </r>
        <r>  0.0014  0.0039  0.0000  0.0025  0.0044  0.0109  0.0134  0.0161  0.0134 </r>
        <r>  0.0239  0.0104  0.0001  0.0000  0.0026  0.0060  0.0061  0.0042  0.0187 </r>
       </set>
      </set>
     </set>
    </set>
   </array>
  </projected>
 </calculation>
 <structure name="finalpos" >
  <crystal>
   <varray name="basis" >
    <v>       6.54920000       0.00000000       0.00000000 </v>
    <v>       0.00000000       5.96893900      -2.80342700 </v>
    <v>       0.00000000       0.00000000       6.69510000 </v>
   </varray>
   <i name="volume">    261.72334480 </i>
   <varray name="rec_basis" >
    <v>       0.15269040       0.00000000       0.00000000 </v>
    <v>       0.00000000       0.16753396       0.00000000 </v>
    <v>       0.00000000       0.07015119       0.14936297 </v>
   </varray>
  </crystal>
  <varray name="positions" >
   <v>       0.13504657       0.85044673       0.12042186 </v>
   <v>       0.63504657       0.14955327       0.37957814 </v>
   <v>       0.86495343       0.14955327       0.87957814 </v>
   <v>       0.36495343       0.85044673       0.62042186 </v>
   <v>       0.63773024       0.65606488       0.81861222 </v>
   <v>       0.13773024       0.34393512       0.68138778 </v>
   <v>       0.36226976       0.34393512       0.18138778 </v>
   <v>       0.86226976       0.65606488       0.31861222 </v>
   <v>       0.49814150       0.72804970       0.20713490 </v>
   <v>      -0.00185850       0.27195030       0.29286510 </v>
   <v>       0.50185850       0.27195030       0.79286510 </v>
   <v>       0.00185850       0.72804970       0.70713490 </v>
  </varray>
 </structure>
</modeling>
