
.Version 8.4.4 of ABINIT 
.(MPI version, prepared for a x86_64_linux_gnu6.3 computer) 

.Copyright (C) 1998-2017 ABINIT group . 
 ABINIT comes with ABSOLUTELY NO WARRANTY.
 It is free software, and you are welcome to redistribute it
 under certain conditions (GNU General Public License,
 see ~abinit/COPYING or http://www.gnu.org/copyleft/gpl.txt).

 ABINIT is a project of the Universite Catholique de Louvain,
 Corning Inc. and other collaborators, see ~abinit/doc/developers/contributors.txt .
 Please read ~abinit/doc/users/acknowledgments.html for suggested
 acknowledgments of the ABINIT effort.
 For more information, see http://www.abinit.org .

.Starting date : Fri  1 Dec 2017.
- ( at 20h35 )
  
- input  file    -> abinit.in
- output file    -> abinit.out
- root for input  files -> abinit-i
- root for output files -> abinit-o

- inpspheads : Reading pseudopotential header in XML form from /users/gufranco/.abinit/PBE_PAW/JTH-PBE-atomicdata-0.2/K.GGA_PBE-JTH.xml
- inpspheads : Reading pseudopotential header in XML form from /users/gufranco/.abinit/PBE_PAW/JTH-PBE-atomicdata-0.2/Co.GGA_PBE-JTH.xml
- inpspheads : Reading pseudopotential header in XML form from /users/gufranco/.abinit/PBE_PAW/JTH-PBE-atomicdata-0.2/F.GGA_PBE-JTH.xml

 Symmetries : the unit cell is not primitive
================================================================================
 Values of the parameters that define the memory need of the present run
     intxc =       0    ionmov =       0      iscf =      17    lmnmax =      18
     lnmax =       6     mgfft =      72  mpssoang =       3    mqgrid =    4920
     natom =      20  nloc_mem =       2    nspden =       2   nspinor =       1
    nsppol =       1      nsym =      32    n1xccc =       1    ntypat =       3
    occopt =       7   xclevel =       2
-    mband =         104        mffmem =           1         mkmem =           1
       mpw =       11392          nfft =      180000          nkpt =           6
Pmy_natom=         2
 PAW method is used; the additional fine FFT grid is defined by:
   mgfftf=       100    nfftf =    518400
================================================================================
P This job should need less than                     277.399 Mbytes of memory.
  Rough estimation (10% accuracy) of disk space for files :
_ WF disk file :    108.471 Mbytes ; DEN or POT disk file :      3.957 Mbytes.
================================================================================

--------------------------------------------------------------------------------
------------- Echo of variables that govern the present computation ------------
--------------------------------------------------------------------------------
-
- outvars: echo of selected default values                                      
-   iomode0 =  0 , fftalg0 =312 , wfoptalg0 = 10
-
- outvars: echo of global parameters not present in the input file              
-  max_nthreads =    0
-
 -outvars: echo values of preprocessed input variables --------
            acell      1.0886698670E+01  1.0886698670E+01  1.5155835667E+01 Bohr
              amu      3.90983000E+01  5.89332000E+01  1.89984032E+01
           diemac      1.20000000E+01
         dmatpawu        0.06256    0.00000    0.01218    0.00000    0.00000
                         0.00000    0.48100    0.00000    0.45877    0.00000
                         0.01218    0.00000    0.07148    0.00000    0.00000
                         0.00000    0.45877    0.00000    0.48100    0.00000
                         0.00000    0.00000    0.00000    0.00000    0.94038
                         0.97852    0.00000    0.00305    0.00000    0.00000
                         0.00000    0.95493    0.00000   -0.00449    0.00000
                         0.00305    0.00000    0.98115    0.00000    0.00000
                         0.00000   -0.00449    0.00000    0.95493    0.00000
                         0.00000    0.00000    0.00000    0.00000    0.95168
                         0.97852    0.00000   -0.00305    0.00000    0.00000
                         0.00000    0.95493    0.00000    0.00449    0.00000
                        -0.00305    0.00000    0.98115    0.00000    0.00000
                         0.00000    0.00449    0.00000    0.95493    0.00000
                         0.00000    0.00000    0.00000    0.00000    0.95168
                         0.06256    0.00000   -0.01218    0.00000    0.00000
                         0.00000    0.48100    0.00000   -0.45877    0.00000
                        -0.01218    0.00000    0.07148    0.00000    0.00000
                         0.00000   -0.45877    0.00000    0.48100    0.00000
                         0.00000    0.00000    0.00000    0.00000    0.94038
             ecut      2.60000000E+01 Hartree
           ecutsm      5.00000000E-01 Hartree
-          fftalg         312
              ixc     -116133
              kpt      1.25000000E-01  1.25000000E-01  2.50000000E-01
                       3.75000000E-01  1.25000000E-01  2.50000000E-01
                      -3.75000000E-01  1.25000000E-01  2.50000000E-01
                      -1.25000000E-01  1.25000000E-01  2.50000000E-01
                       3.75000000E-01  3.75000000E-01  2.50000000E-01
                      -3.75000000E-01  3.75000000E-01  2.50000000E-01
         kptrlatt        4    0    0      0    4    0      0    0    2
          kptrlen      3.03116713E+01
            lpawu          -1       2      -1
P           mkmem           1
            natom          20
            nband         104
            ngfft          50      50      72
          ngfftdg          72      72     100
             nkpt           6
           nspden           2
            nstep         100
             nsym          32
           ntypat           3
              occ      2.000000  2.000000  2.000000  2.000000  2.000000  2.000000
                       2.000000  2.000000  2.000000  2.000000  2.000000  2.000000
                       2.000000  2.000000  2.000000  2.000000  2.000000  2.000000
                       2.000000  2.000000  2.000000  2.000000  2.000000  2.000000
                       2.000000  2.000000  2.000000  2.000000  2.000000  2.000000
                       2.000000  2.000000  2.000000  2.000000  2.000000  2.000000
                       2.000000  2.000000  2.000000  2.000000  2.000000  2.000000
                       2.000000  2.000000  2.000000  2.000000  2.000000  2.000000
                       2.000000  2.000000  2.000000  2.000000  2.000000  2.000000
                       2.000000  2.000000  2.000000  2.000000  2.000000  2.000000
                       2.000000  2.000000  2.000000  2.000000  2.000000  2.000000
                       2.000000  2.000000  2.000000  2.000000  2.000000  2.000000
                       2.000000  2.000000  2.000000  2.000000  2.000000  2.000000
                       2.000000  2.000000  2.000000  2.000000  2.000000  2.000000
                       2.000000  2.000000  2.000000  2.000000  2.000000  2.000000
                       2.000000  2.000000  2.000000  2.000000  0.000000  0.000000
                       0.000000  0.000000  0.000000  0.000000  0.000000  0.000000
                       0.000000  0.000000
                       2.000000  2.000000  2.000000  2.000000  2.000000  2.000000
                       2.000000  2.000000  2.000000  2.000000  2.000000  2.000000
                       2.000000  2.000000  2.000000  2.000000  2.000000  2.000000
                       2.000000  2.000000  2.000000  2.000000  2.000000  2.000000
                       2.000000  2.000000  2.000000  2.000000  2.000000  2.000000
                       2.000000  2.000000  2.000000  2.000000  2.000000  2.000000
                       2.000000  2.000000  2.000000  2.000000  2.000000  2.000000
                       2.000000  2.000000  2.000000  2.000000  2.000000  2.000000
                       2.000000  2.000000  2.000000  2.000000  2.000000  2.000000
                       2.000000  2.000000  2.000000  2.000000  2.000000  2.000000
                       2.000000  2.000000  2.000000  2.000000  2.000000  2.000000
                       2.000000  2.000000  2.000000  2.000000  2.000000  2.000000
                       2.000000  2.000000  2.000000  2.000000  2.000000  2.000000
                       2.000000  2.000000  2.000000  2.000000  2.000000  2.000000
                       2.000000  2.000000  2.000000  2.000000  2.000000  2.000000
                       2.000000  2.000000  2.000000  2.000000  0.000000  0.000000
                       0.000000  0.000000  0.000000  0.000000  0.000000  0.000000
                       0.000000  0.000000
                       2.000000  2.000000  2.000000  2.000000  2.000000  2.000000
                       2.000000  2.000000  2.000000  2.000000  2.000000  2.000000
                       2.000000  2.000000  2.000000  2.000000  2.000000  2.000000
                       2.000000  2.000000  2.000000  2.000000  2.000000  2.000000
                       2.000000  2.000000  2.000000  2.000000  2.000000  2.000000
                       2.000000  2.000000  2.000000  2.000000  2.000000  2.000000
                       2.000000  2.000000  2.000000  2.000000  2.000000  2.000000
                       2.000000  2.000000  2.000000  2.000000  2.000000  2.000000
                       2.000000  2.000000  2.000000  2.000000  2.000000  2.000000
                       2.000000  2.000000  2.000000  2.000000  2.000000  2.000000
                       2.000000  2.000000  2.000000  2.000000  2.000000  2.000000
                       2.000000  2.000000  2.000000  2.000000  2.000000  2.000000
                       2.000000  2.000000  2.000000  2.000000  2.000000  2.000000
                       2.000000  2.000000  2.000000  2.000000  2.000000  2.000000
                       2.000000  2.000000  2.000000  2.000000  2.000000  2.000000
                       2.000000  2.000000  2.000000  2.000000  0.000000  0.000000
                       0.000000  0.000000  0.000000  0.000000  0.000000  0.000000
                       0.000000  0.000000
                       2.000000  2.000000  2.000000  2.000000  2.000000  2.000000
                       2.000000  2.000000  2.000000  2.000000  2.000000  2.000000
                       2.000000  2.000000  2.000000  2.000000  2.000000  2.000000
                       2.000000  2.000000  2.000000  2.000000  2.000000  2.000000
                       2.000000  2.000000  2.000000  2.000000  2.000000  2.000000
                       2.000000  2.000000  2.000000  2.000000  2.000000  2.000000
                       2.000000  2.000000  2.000000  2.000000  2.000000  2.000000
                       2.000000  2.000000  2.000000  2.000000  2.000000  2.000000
                       2.000000  2.000000  2.000000  2.000000  2.000000  2.000000
                       2.000000  2.000000  2.000000  2.000000  2.000000  2.000000
                       2.000000  2.000000  2.000000  2.000000  2.000000  2.000000
                       2.000000  2.000000  2.000000  2.000000  2.000000  2.000000
                       2.000000  2.000000  2.000000  2.000000  2.000000  2.000000
                       2.000000  2.000000  2.000000  2.000000  2.000000  2.000000
                       2.000000  2.000000  2.000000  2.000000  2.000000  2.000000
                       2.000000  2.000000  2.000000  2.000000  0.000000  0.000000
                       0.000000  0.000000  0.000000  0.000000  0.000000  0.000000
                       0.000000  0.000000
                       2.000000  2.000000  2.000000  2.000000  2.000000  2.000000
                       2.000000  2.000000  2.000000  2.000000  2.000000  2.000000
                       2.000000  2.000000  2.000000  2.000000  2.000000  2.000000
                       2.000000  2.000000  2.000000  2.000000  2.000000  2.000000
                       2.000000  2.000000  2.000000  2.000000  2.000000  2.000000
                       2.000000  2.000000  2.000000  2.000000  2.000000  2.000000
                       2.000000  2.000000  2.000000  2.000000  2.000000  2.000000
                       2.000000  2.000000  2.000000  2.000000  2.000000  2.000000
                       2.000000  2.000000  2.000000  2.000000  2.000000  2.000000
                       2.000000  2.000000  2.000000  2.000000  2.000000  2.000000
                       2.000000  2.000000  2.000000  2.000000  2.000000  2.000000
                       2.000000  2.000000  2.000000  2.000000  2.000000  2.000000
                       2.000000  2.000000  2.000000  2.000000  2.000000  2.000000
                       2.000000  2.000000  2.000000  2.000000  2.000000  2.000000
                       2.000000  2.000000  2.000000  2.000000  2.000000  2.000000
                       2.000000  2.000000  2.000000  2.000000  0.000000  0.000000
                       0.000000  0.000000  0.000000  0.000000  0.000000  0.000000
                       0.000000  0.000000
                       2.000000  2.000000  2.000000  2.000000  2.000000  2.000000
                       2.000000  2.000000  2.000000  2.000000  2.000000  2.000000
                       2.000000  2.000000  2.000000  2.000000  2.000000  2.000000
                       2.000000  2.000000  2.000000  2.000000  2.000000  2.000000
                       2.000000  2.000000  2.000000  2.000000  2.000000  2.000000
                       2.000000  2.000000  2.000000  2.000000  2.000000  2.000000
                       2.000000  2.000000  2.000000  2.000000  2.000000  2.000000
                       2.000000  2.000000  2.000000  2.000000  2.000000  2.000000
                       2.000000  2.000000  2.000000  2.000000  2.000000  2.000000
                       2.000000  2.000000  2.000000  2.000000  2.000000  2.000000
                       2.000000  2.000000  2.000000  2.000000  2.000000  2.000000
                       2.000000  2.000000  2.000000  2.000000  2.000000  2.000000
                       2.000000  2.000000  2.000000  2.000000  2.000000  2.000000
                       2.000000  2.000000  2.000000  2.000000  2.000000  2.000000
                       2.000000  2.000000  2.000000  2.000000  2.000000  2.000000
                       2.000000  2.000000  2.000000  2.000000  0.000000  0.000000
                       0.000000  0.000000  0.000000  0.000000  0.000000  0.000000
                       0.000000  0.000000
           occopt           7
        pawecutdg      5.20000000E+01 Hartree
           shiftk      5.00000000E-01  5.00000000E-01  5.00000000E-01
           spinat      0.0000000000E+00  0.0000000000E+00  0.0000000000E+00
                       0.0000000000E+00  0.0000000000E+00  0.0000000000E+00
                       0.0000000000E+00  0.0000000000E+00  0.0000000000E+00
                       0.0000000000E+00  0.0000000000E+00  0.0000000000E+00
                       0.0000000000E+00  0.0000000000E+00 -4.0000000000E+00
                       0.0000000000E+00  0.0000000000E+00  4.0000000000E+00
                       0.0000000000E+00  0.0000000000E+00  4.0000000000E+00
                       0.0000000000E+00  0.0000000000E+00 -4.0000000000E+00
                       0.0000000000E+00  0.0000000000E+00  0.0000000000E+00
                       0.0000000000E+00  0.0000000000E+00  0.0000000000E+00
                       0.0000000000E+00  0.0000000000E+00  0.0000000000E+00
                       0.0000000000E+00  0.0000000000E+00  0.0000000000E+00
                       0.0000000000E+00  0.0000000000E+00  0.0000000000E+00
                       0.0000000000E+00  0.0000000000E+00  0.0000000000E+00
                       0.0000000000E+00  0.0000000000E+00  0.0000000000E+00
                       0.0000000000E+00  0.0000000000E+00  0.0000000000E+00
                       0.0000000000E+00  0.0000000000E+00  0.0000000000E+00
                       0.0000000000E+00  0.0000000000E+00  0.0000000000E+00
                       0.0000000000E+00  0.0000000000E+00  0.0000000000E+00
                       0.0000000000E+00  0.0000000000E+00  0.0000000000E+00
           symafm        1    1    1    1   -1   -1   -1   -1    1    1
                         1    1   -1   -1   -1   -1    1    1    1    1
                        -1   -1   -1   -1    1    1    1    1   -1   -1
                        -1   -1
           symrel      1  0  0   0  1  0   0  0  1       1  0  0   0  1  0   0  0  1
                      -1  0  0   0 -1  0   0  0 -1      -1  0  0   0 -1  0   0  0 -1
                      -1  0  0   0  1  0   0  0 -1      -1  0  0   0  1  0   0  0 -1
                       1  0  0   0 -1  0   0  0  1       1  0  0   0 -1  0   0  0  1
                      -1  0  0   0 -1  0   0  0  1      -1  0  0   0 -1  0   0  0  1
                       1  0  0   0  1  0   0  0 -1       1  0  0   0  1  0   0  0 -1
                       1  0  0   0 -1  0   0  0 -1       1  0  0   0 -1  0   0  0 -1
                      -1  0  0   0  1  0   0  0  1      -1  0  0   0  1  0   0  0  1
                       0  1  0   1  0  0   0  0  1       0  1  0   1  0  0   0  0  1
                       0 -1  0  -1  0  0   0  0 -1       0 -1  0  -1  0  0   0  0 -1
                       0 -1  0   1  0  0   0  0 -1       0 -1  0   1  0  0   0  0 -1
                       0  1  0  -1  0  0   0  0  1       0  1  0  -1  0  0   0  0  1
                       0 -1  0  -1  0  0   0  0  1       0 -1  0  -1  0  0   0  0  1
                       0  1  0   1  0  0   0  0 -1       0  1  0   1  0  0   0  0 -1
                       0  1  0  -1  0  0   0  0 -1       0  1  0  -1  0  0   0  0 -1
                       0 -1  0   1  0  0   0  0  1       0 -1  0   1  0  0   0  0  1
            tnons      0.0000000  0.0000000  0.0000000     0.5000000  0.5000000  0.5000000
                      -0.0000000 -0.0000000  0.5000000     0.5000000  0.5000000  0.0000000
                       0.5000000  0.5000000  0.5000000    -0.0000000 -0.0000000  0.0000000
                       0.5000000  0.5000000  0.0000000     0.0000000 -0.0000000  0.5000000
                      -0.0000000 -0.0000000  0.0000000     0.5000000  0.5000000  0.5000000
                       0.0000000  0.0000000  0.5000000     0.5000000  0.5000000  0.0000000
                       0.5000000  0.5000000  0.5000000     0.0000000 -0.0000000  0.0000000
                       0.5000000  0.5000000  0.0000000    -0.0000000 -0.0000000  0.5000000
                       0.5000000  0.5000000  0.0000000     0.0000000  0.0000000  0.5000000
                       0.5000000  0.5000000  0.5000000     0.0000000 -0.0000000  0.0000000
                       0.0000000 -0.0000000  0.5000000     0.5000000  0.5000000  0.0000000
                       0.0000000  0.0000000  0.0000000     0.5000000  0.5000000  0.5000000
                       0.5000000  0.5000000  0.0000000     0.0000000 -0.0000000  0.5000000
                       0.5000000  0.5000000  0.5000000     0.0000000  0.0000000  0.0000000
                       0.0000000  0.0000000  0.5000000     0.5000000  0.5000000  0.0000000
                       0.0000000 -0.0000000  0.0000000     0.5000000  0.5000000  0.5000000
           tolvrs      1.00000000E-14
           tsmear      1.00000000E-03 Hartree
            typat      1  1  1  1  2  2  2  2  3  3  3  3  3  3  3  3  3  3  3  3
            upawu      0.00000000E+00  1.46997302E-01  0.00000000E+00 Hartree
        usedmatpu          50
          usepawu           1
           useylm           1
              wtk        0.12500    0.25000    0.25000    0.12500    0.12500    0.12500
           xangst      2.0339865700E-20 -1.9352939087E-20 -2.5194539416E-32
                       2.8804964065E+00  2.8804964065E+00  7.3973205348E-32
                       2.0339865700E-20 -1.9352939087E-20  4.0100614061E+00
                       2.8804964065E+00  2.8804964065E+00  4.0100614061E+00
                       2.8804964065E+00 -1.9352939087E-20  2.0050307030E+00
                       2.0339865700E-20  2.8804964065E+00  2.0050307030E+00
                       2.8804964065E+00 -1.9352939087E-20  6.0150921091E+00
                       2.0339865700E-20  2.8804964065E+00  6.0150921091E+00
                       2.8804964065E+00 -1.9352939087E-20  2.4389332966E-32
                       2.0339865700E-20  2.8804964065E+00  2.4389332966E-32
                       2.8804964065E+00 -1.9352939087E-20  4.0100614061E+00
                       2.0339865700E-20  2.8804964065E+00  4.0100614061E+00
                       1.4737775959E+00  1.4067188106E+00  2.0050307030E+00
                       4.3542740024E+00  1.4737775959E+00  2.0050307030E+00
                       4.2872152170E+00  4.3542740024E+00  2.0050307030E+00
                       1.4067188106E+00  4.2872152170E+00  2.0050307030E+00
                       1.4067188106E+00  1.4737775959E+00  6.0150921091E+00
                       4.2872152170E+00  1.4067188106E+00  6.0150921091E+00
                       4.3542740024E+00  4.2872152170E+00  6.0150921091E+00
                       1.4737775959E+00  4.3542740024E+00  6.0150921091E+00
            xcart      3.8436775753E-20 -3.6571754740E-20 -4.7610779540E-32
                       5.4433493350E+00  5.4433493350E+00  1.3978909928E-31
                       3.8436775753E-20 -3.6571754740E-20  7.5779178335E+00
                       5.4433493350E+00  5.4433493350E+00  7.5779178335E+00
                       5.4433493350E+00 -3.6571754740E-20  3.7889589167E+00
                       3.8436775753E-20  5.4433493350E+00  3.7889589167E+00
                       5.4433493350E+00 -3.6571754741E-20  1.1366876750E+01
                       3.8436775753E-20  5.4433493350E+00  1.1366876750E+01
                       5.4433493350E+00 -3.6571754740E-20  4.6089159869E-32
                       3.8436775753E-20  5.4433493350E+00  4.6089159869E-32
                       5.4433493350E+00 -3.6571754740E-20  7.5779178335E+00
                       3.8436775753E-20  5.4433493350E+00  7.5779178335E+00
                       2.7850360371E+00  2.6583132979E+00  3.7889589167E+00
                       8.2283853721E+00  2.7850360371E+00  3.7889589167E+00
                       8.1016626329E+00  8.2283853721E+00  3.7889589167E+00
                       2.6583132979E+00  8.1016626329E+00  3.7889589167E+00
                       2.6583132979E+00  2.7850360371E+00  1.1366876750E+01
                       8.1016626329E+00  2.6583132979E+00  1.1366876750E+01
                       8.2283853721E+00  8.1016626329E+00  1.1366876750E+01
                       2.7850360371E+00  8.2283853721E+00  1.1366876750E+01
             xred      3.5306181349E-21 -3.3593062368E-21 -3.1414156623E-33
                       5.0000000000E-01  5.0000000000E-01  9.2234504484E-33
                       3.5306181349E-21 -3.3593062368E-21  5.0000000000E-01
                       5.0000000000E-01  5.0000000000E-01  5.0000000000E-01
                       5.0000000000E-01 -3.3593062368E-21  2.5000000000E-01
                       3.5306181349E-21  5.0000000000E-01  2.5000000000E-01
                       5.0000000000E-01 -3.3593062369E-21  7.5000000000E-01
                       3.5306181349E-21  5.0000000000E-01  7.5000000000E-01
                       5.0000000000E-01 -3.3593062368E-21  3.0410173930E-33
                       3.5306181349E-21  5.0000000000E-01  3.0410173930E-33
                       5.0000000000E-01 -3.3593062368E-21  5.0000000000E-01
                       3.5306181349E-21  5.0000000000E-01  5.0000000000E-01
                       2.5582007195E-01  2.4417992805E-01  2.5000000000E-01
                       7.5582007195E-01  2.5582007195E-01  2.5000000000E-01
                       7.4417992805E-01  7.5582007195E-01  2.5000000000E-01
                       2.4417992805E-01  7.4417992805E-01  2.5000000000E-01
                       2.4417992805E-01  2.5582007195E-01  7.5000000000E-01
                       7.4417992805E-01  2.4417992805E-01  7.5000000000E-01
                       7.5582007195E-01  7.4417992805E-01  7.5000000000E-01
                       2.5582007195E-01  7.5582007195E-01  7.5000000000E-01
            znucl       19.00000   27.00000    9.00000

================================================================================

 chkinp: Checking input parameters for consistency.

================================================================================
== DATASET  1 ==================================================================
-   nproc =   16   -> not optimal: autoparal keyword recommended in input file

 Real(R)+Recip(G) space primitive vectors, cartesian coordinates (Bohr,Bohr^-1):
 R(1)= 10.8866987  0.0000000  0.0000000  G(1)=  0.0918552  0.0000000  0.0000000
 R(2)=  0.0000000 10.8866987  0.0000000  G(2)=  0.0000000  0.0918552  0.0000000
 R(3)=  0.0000000  0.0000000 15.1558357  G(3)=  0.0000000  0.0000000  0.0659812
 Unit cell volume ucvol=  1.7962728E+03 bohr^3
 Angles (23,13,12)=  9.00000000E+01  9.00000000E+01  9.00000000E+01 degrees

 Coarse grid specifications (used for wave-functions):

 getcut: wavevector=  0.0000  0.0000  0.0000  ngfft=  50  50  72
         ecut(hartree)=     26.000   => boxcut(ratio)=   2.00088

 Fine grid specifications (used for densities):

 getcut: wavevector=  0.0000  0.0000  0.0000  ngfft=  72  72 100
         ecut(hartree)=     52.000   => boxcut(ratio)=   2.03261

--- Pseudopotential description ------------------------------------------------
- pspini: atom type   1  psp file is /users/gufranco/.abinit/PBE_PAW/JTH-PBE-atomicdata-0.2/K.GGA_PBE-JTH.xml
- pspatm: opening atomic psp file    /users/gufranco/.abinit/PBE_PAW/JTH-PBE-atomicdata-0.2/K.GGA_PBE-JTH.xml
- pspatm : Reading pseudopotential header in XML form from /users/gufranco/.abinit/PBE_PAW/JTH-PBE-atomicdata-0.2/K.GGA_PBE-JTH.xml
 Pseudopotential format is: paw10
 basis_size (lnmax)=  5 (lmn_size= 13), orbitals=   0   0   1   1   2
 Spheres core radius: rc_sph= 2.10865939
 1 radial meshes are used:
  - mesh 1: r(i)=AA*[exp(BB*(i-1))-1], size=2001 , AA= 0.32655E-03 BB= 0.62045E-02
 Shapefunction is SIN type: shapef(r)=[sin(pi*r/rshp)/(pi*r/rshp)]**2
 Radius for shape functions =  2.00653367
 mmax= 2001
 Radial grid used for partial waves is grid 1
 Radial grid used for projectors is grid 1
 Radial grid used for (t)core density is grid 1
 Radial grid used for Vloc is grid 1
 Radial grid used for pseudo valence density is grid 1
 Mesh size for Vloc has been set to 1777 to avoid numerical noise.
 Compensation charge density is not taken into account in XC energy/potential
 pspatm: atomic psp has been read  and splines computed

- pspini: atom type   2  psp file is /users/gufranco/.abinit/PBE_PAW/JTH-PBE-atomicdata-0.2/Co.GGA_PBE-JTH.xml
- pspatm: opening atomic psp file    /users/gufranco/.abinit/PBE_PAW/JTH-PBE-atomicdata-0.2/Co.GGA_PBE-JTH.xml
- pspatm : Reading pseudopotential header in XML form from /users/gufranco/.abinit/PBE_PAW/JTH-PBE-atomicdata-0.2/Co.GGA_PBE-JTH.xml
 Pseudopotential format is: paw10
 basis_size (lnmax)=  6 (lmn_size= 18), orbitals=   0   0   1   1   2   2
 Spheres core radius: rc_sph= 2.10903434
 1 radial meshes are used:
  - mesh 1: r(i)=AA*[exp(BB*(i-1))-1], size=2001 , AA= 0.23582E-03 BB= 0.63672E-02
 Shapefunction is SIN type: shapef(r)=[sin(pi*r/rshp)/(pi*r/rshp)]**2
 Radius for shape functions =  1.60384542
 mmax= 2001
 Radial grid used for partial waves is grid 1
 Radial grid used for projectors is grid 1
 Radial grid used for (t)core density is grid 1
 Radial grid used for Vloc is grid 1
 Radial grid used for pseudo valence density is grid 1
 Mesh size for Vloc has been set to 1783 to avoid numerical noise.
 Compensation charge density is not taken into account in XC energy/potential
 pspatm: atomic psp has been read  and splines computed

- pspini: atom type   3  psp file is /users/gufranco/.abinit/PBE_PAW/JTH-PBE-atomicdata-0.2/F.GGA_PBE-JTH.xml
- pspatm: opening atomic psp file    /users/gufranco/.abinit/PBE_PAW/JTH-PBE-atomicdata-0.2/F.GGA_PBE-JTH.xml
- pspatm : Reading pseudopotential header in XML form from /users/gufranco/.abinit/PBE_PAW/JTH-PBE-atomicdata-0.2/F.GGA_PBE-JTH.xml
 Pseudopotential format is: paw10
 basis_size (lnmax)=  4 (lmn_size=  8), orbitals=   0   0   1   1
 Spheres core radius: rc_sph= 1.40288605
 1 radial meshes are used:
  - mesh 1: r(i)=AA*[exp(BB*(i-1))-1], size=2001 , AA= 0.65105E-03 BB= 0.58595E-02
 Shapefunction is SIN type: shapef(r)=[sin(pi*r/rshp)/(pi*r/rshp)]**2
 Radius for shape functions =  1.20455331
 mmax= 2001
 Radial grid used for partial waves is grid 1
 Radial grid used for projectors is grid 1
 Radial grid used for (t)core density is grid 1
 Radial grid used for Vloc is grid 1
 Radial grid used for pseudo valence density is grid 1
 Mesh size for Vloc has been set to 1764 to avoid numerical noise.
 Compensation charge density is not taken into account in XC energy/potential
 pspatm: atomic psp has been read  and splines computed

   3.38788723E+04                                ecore*ucvol(ha*bohr**3)
--------------------------------------------------------------------------------

_setup2: Arith. and geom. avg. npw (full set) are   11370.250   11370.243


 ******************************************
 LDA+U Method used: FLL
 ******************************************

================================================================================

     iter   Etot(hartree)      deltaE(h)  residm     nres2
 ETOT  1  -975.63108372072    -9.756E+02 6.491E+00 4.052E+02
 ETOT  2  -993.22431906312    -1.759E+01 1.691E-01 5.417E+02
 ETOT  3  -993.24475880552    -2.044E-02 2.359E-01 1.009E+02
 ETOT  4  -992.33085809699     9.139E-01 4.263E-02 3.185E+01
 ETOT  5  -991.77495469470     5.559E-01 1.516E-02 8.292E+00
 ETOT  6  -991.52363232265     2.513E-01 7.315E-03 6.792E+00
 ETOT  7  -991.17096234761     3.527E-01 6.391E-03 2.120E+00
 ETOT  8  -991.18016317699    -9.201E-03 2.316E-03 7.402E-01
 ETOT  9  -991.16548830377     1.467E-02 2.432E-03 6.045E-02
 ETOT 10  -991.18286247971    -1.737E-02 1.222E-03 8.538E-02
 ETOT 11  -991.17525278396     7.610E-03 1.520E-03 3.341E-02
 ETOT 12  -991.16889884415     6.354E-03 8.928E-04 2.108E-03
 ETOT 13  -991.17004057525    -1.142E-03 1.139E-03 2.175E-03
 ETOT 14  -991.16768654809     2.354E-03 6.657E-04 7.670E-04
 ETOT 15  -991.16703637719     6.502E-04 9.203E-04 2.046E-04
 ETOT 16  -991.16715232649    -1.159E-04 4.996E-04 1.160E-04
 ETOT 17  -991.16735895625    -2.066E-04 7.351E-04 2.219E-05
 ETOT 18  -991.16745298778    -9.403E-05 3.757E-04 5.516E-06
 ETOT 19  -991.16746002913    -7.041E-06 5.821E-04 3.997E-07
 ETOT 20  -991.16745022164     9.807E-06 3.134E-04 7.731E-08
 ETOT 21  -991.16743418809     1.603E-05 4.587E-04 1.142E-07
 ETOT 22  -991.16742700606     7.182E-06 2.751E-04 2.235E-08
 ETOT 23  -991.16742096008     6.046E-06 3.600E-04 1.098E-09
 ETOT 24  -991.16742225829    -1.298E-06 2.250E-04 1.573E-10
 ETOT 25  -991.16742250758    -2.493E-07 2.815E-04 2.003E-10
 ETOT 26  -991.16742286816    -3.606E-07 1.766E-04 6.016E-11
 ETOT 27  -991.16742326310    -3.949E-07 2.192E-04 3.636E-11
 ETOT 28  -991.16742326340    -2.942E-10 1.351E-04 1.036E-11
 ETOT 29  -991.16742336469    -1.013E-07 1.699E-04 2.944E-12
 ETOT 30  -991.16742332248     4.221E-08 1.017E-04 5.857E-13
 ETOT 31  -991.16742327932     4.316E-08 1.311E-04 4.670E-13
 ETOT 32  -991.16742325672     2.260E-08 7.583E-05 4.500E-14
 ETOT 33  -991.16742325431     2.416E-09 1.008E-04 3.525E-14
 ETOT 34  -991.16742325462    -3.073E-10 5.614E-05 1.037E-13
 ETOT 35  -991.16742325762    -3.003E-09 7.718E-05 5.685E-14
 ETOT 36  -991.16742325491     2.711E-09 4.139E-05 3.715E-15
 ETOT 37  -991.16742325598    -1.071E-09 5.894E-05 2.623E-16
 ETOT 38  -991.16742325594     3.718E-11 3.045E-05 4.193E-16
 ETOT 39  -991.16742325493     1.011E-09 4.491E-05 2.209E-16
 ETOT 40  -991.16742325491     1.864E-11 2.237E-05 2.648E-16
 ETOT 41  -991.16742325465     2.599E-10 3.415E-05 1.160E-16
 ETOT 42  -991.16742325599    -1.334E-09 1.643E-05 3.296E-17
 ETOT 43  -991.16742325594     4.343E-11 2.593E-05 6.247E-17
 ETOT 44  -991.16742325519     7.543E-10 1.207E-05 1.640E-17
 ETOT 45  -991.16742325532    -1.278E-10 1.967E-05 3.295E-18
 ETOT 46  -991.16742325476     5.533E-10 8.872E-06 2.024E-18
 ETOT 47  -991.16742325558    -8.175E-10 1.490E-05 4.659E-18
 ETOT 48  -991.16742325556     2.217E-11 6.617E-06 2.397E-18
 ETOT 49  -991.16742325538     1.772E-10 1.129E-05 7.623E-18
 ETOT 50  -991.16742325558    -2.009E-10 5.484E-06 9.035E-18
 ETOT 51  -991.28774799299    -1.203E-01 3.868E-03 3.478E+00
 ETOT 52  -991.28813319240    -3.852E-04 6.440E-05 3.524E+00
 ETOT 53  -991.28813405633    -8.639E-07 6.348E-06 3.526E+00
 ETOT 54  -991.28813344554     6.108E-07 7.939E-06 3.526E+00
 ETOT 55  -991.28813322489     2.206E-07 4.845E-06 3.526E+00
 ETOT 56  -991.28813315597     6.892E-08 6.675E-06 3.526E+00
 ETOT 57  -991.28813313508     2.089E-08 4.087E-06 3.526E+00
 ETOT 58  -991.28813312908     5.999E-09 5.671E-06 3.526E+00
 ETOT 59  -991.56145597407    -2.733E-01 5.485E-02 1.328E+02
 ETOT 60  -991.29449889213     2.670E-01 6.190E-02 2.970E+00
 ETOT 61  -991.30324086735    -8.742E-03 3.419E-03 2.207E+00
 ETOT 62  -991.30489115338    -1.650E-03 1.495E-03 8.425E-01
 ETOT 63  -991.30582740983    -9.363E-04 5.560E-05 6.889E-01
 ETOT 64  -991.30699804917    -1.171E-03 4.312E-05 8.596E-01
 ETOT 65  -991.30706358824    -6.554E-05 1.472E-05 4.424E-01
 ETOT 66  -991.30878652879    -1.723E-03 9.126E-05 5.685E-01
 ETOT 67  -991.30854529110     2.412E-04 1.753E-05 1.186E-01
 ETOT 68  -991.30840918439     1.361E-04 2.632E-05 8.187E-03
 ETOT 69  -991.30841723234    -8.048E-06 1.447E-05 8.507E-03
 ETOT 70  -991.30841025474     6.978E-06 4.086E-06 2.384E-03
 ETOT 71  -991.30840716157     3.093E-06 3.920E-06 1.050E-04
 ETOT 72  -991.30840689481     2.668E-07 2.552E-06 1.765E-05
 ETOT 73  -991.30840693938    -4.457E-08 3.096E-06 5.663E-06
 ETOT 74  -991.30840689511     4.427E-08 1.971E-06 3.552E-06
 ETOT 75  -991.30840692266    -2.755E-08 2.495E-06 5.171E-07
 ETOT 76  -991.30840691883     3.831E-09 1.571E-06 2.895E-07
 ETOT 77  -991.30840691488     3.953E-09 2.041E-06 4.360E-08
 ETOT 78  -991.30840691360     1.274E-09 1.287E-06 2.017E-09
 ETOT 79  -991.30840691413    -5.251E-10 1.695E-06 1.298E-09
 ETOT 80  -991.30840691418    -5.252E-11 1.069E-06 1.103E-09
 ETOT 81  -991.30840691384     3.444E-10 1.425E-06 2.829E-10
 ETOT 82  -991.30840691489    -1.056E-09 8.966E-07 7.102E-12
 ETOT 83  -991.30840691353     1.362E-09 1.209E-06 2.183E-12
 ETOT 84  -991.30840691450    -9.730E-10 7.576E-07 9.718E-13
 ETOT 85  -991.30840691466    -1.590E-10 1.033E-06 6.266E-13
 ETOT 86  -991.30840691448     1.814E-10 6.444E-07 2.498E-14
 ETOT 87  -991.30840691420     2.811E-10 8.883E-07 2.533E-14
 ETOT 88  -991.30840691360     6.027E-10 5.511E-07 2.488E-15

 At SCF step   88       nres2   =  2.49E-15 < tolvrs=  1.00E-14 =>converged.

 Cartesian components of stress tensor (hartree/bohr^3)
  sigma(1 1)=  5.25985153E-07  sigma(3 2)=  0.00000000E+00
  sigma(2 2)=  5.25985153E-07  sigma(3 1)=  0.00000000E+00
  sigma(3 3)=  2.61060643E-06  sigma(2 1)=  0.00000000E+00

 Integrated electronic and magnetization densities in atomic spheres:
 ---------------------------------------------------------------------
 Note: Diff(up-dn) is a rough approximation of local magnetic moment
 Atom    Radius    up_density   dn_density  Total(up+dn)  Diff(up-dn)
    1   2.10866     3.576113     3.576113      7.152225     0.000000
    2   2.10866     3.576113     3.576113      7.152225     0.000000
    3   2.10866     3.576113     3.576113      7.152225     0.000000
    4   2.10866     3.576113     3.576113      7.152225     0.000000
    5   2.10903     6.257389     8.973874     15.231263    -2.716485
    6   2.10903     8.973874     6.257389     15.231263     2.716485
    7   2.10903     8.973874     6.257389     15.231263     2.716485
    8   2.10903     6.257389     8.973874     15.231263    -2.716485
    9   1.40289     2.828811     2.828811      5.657621     0.000000
   10   1.40289     2.828811     2.828811      5.657621     0.000000
   11   1.40289     2.828811     2.828811      5.657621     0.000000
   12   1.40289     2.828811     2.828811      5.657621     0.000000
   13   1.40289     2.820188     2.834350      5.654538    -0.014162
   14   1.40289     2.834350     2.820188      5.654538     0.014162
   15   1.40289     2.820188     2.834350      5.654538    -0.014162
   16   1.40289     2.834350     2.820188      5.654538     0.014162
   17   1.40289     2.820188     2.834350      5.654538    -0.014162
   18   1.40289     2.834350     2.820188      5.654538     0.014162
   19   1.40289     2.820188     2.834350      5.654538    -0.014162
   20   1.40289     2.834350     2.820188      5.654538     0.014162
 ---------------------------------------------------------------------
  Sum:             78.700370    78.700370    157.400740     0.000000
 Total magnetization (from the atomic spheres):             0.000000
 Total magnetization (exact up - dn):                      -0.000000

 PAW TEST:
 ==== Compensation charge inside spheres ============
 The following values must be close to each other ...
 Compensation charge over spherical meshes =     56.308100475705075
 Compensation charge over fine fft grid    =     56.308028248425686

 ==== Results concerning PAW augmentation regions ====

 Total pseudopotential strength Dij (hartree):
 Atom #  1 - Spin component 1
   1.35842  -0.21032   0.00000   0.00000   0.00000   0.00000   0.00000   0.00000  -0.00000   0.00000   0.00002   0.00000 ...
  -0.21032  -0.47350   0.00000   0.00000   0.00000   0.00000   0.00000   0.00000  -0.00000   0.00000   0.00002   0.00000 ...
   0.00000   0.00000   0.03637   0.00000  -0.00000  -0.01513   0.00000  -0.00000   0.00000  -0.00000   0.00000   0.00000 ...
   0.00000   0.00000   0.00000   0.03639   0.00000   0.00000  -0.01512   0.00000   0.00000   0.00000   0.00000   0.00000 ...
   0.00000   0.00000  -0.00000   0.00000   0.03637  -0.00000   0.00000  -0.01513   0.00000   0.00000   0.00000   0.00000 ...
   0.00000   0.00000  -0.01513   0.00000  -0.00000  -0.01160   0.00000  -0.00000   0.00000  -0.00000   0.00000   0.00000 ...
   0.00000   0.00000   0.00000  -0.01512   0.00000   0.00000  -0.01160   0.00000   0.00000   0.00000   0.00000   0.00000 ...
   0.00000   0.00000  -0.00000   0.00000  -0.01513  -0.00000   0.00000  -0.01160   0.00000   0.00000   0.00000   0.00000 ...
  -0.00000  -0.00000   0.00000   0.00000   0.00000   0.00000   0.00000   0.00000  -0.08106   0.00000  -0.00000   0.00000 ...
   0.00000   0.00000  -0.00000   0.00000   0.00000  -0.00000   0.00000   0.00000   0.00000  -0.08103   0.00000  -0.00000 ...
   0.00002   0.00002   0.00000   0.00000   0.00000   0.00000   0.00000   0.00000  -0.00000   0.00000  -0.08103   0.00000 ...
   0.00000   0.00000   0.00000   0.00000   0.00000   0.00000   0.00000   0.00000   0.00000  -0.00000   0.00000  -0.08103 ...
   ...  only 12  components have been written...
 Atom #  1 - Spin component 2
   1.35842  -0.21032   0.00000   0.00000   0.00000   0.00000   0.00000   0.00000   0.00000   0.00000   0.00002   0.00000 ...
  -0.21032  -0.47350   0.00000   0.00000   0.00000   0.00000   0.00000   0.00000   0.00000   0.00000   0.00002   0.00000 ...
   0.00000   0.00000   0.03637   0.00000   0.00000  -0.01513   0.00000   0.00000   0.00000   0.00000   0.00000   0.00000 ...
   0.00000   0.00000   0.00000   0.03639   0.00000   0.00000  -0.01512   0.00000   0.00000   0.00000   0.00000   0.00000 ...
   0.00000   0.00000   0.00000   0.00000   0.03637   0.00000   0.00000  -0.01513   0.00000   0.00000   0.00000  -0.00000 ...
   0.00000   0.00000  -0.01513   0.00000   0.00000  -0.01160   0.00000   0.00000   0.00000   0.00000   0.00000   0.00000 ...
   0.00000   0.00000   0.00000  -0.01512   0.00000   0.00000  -0.01160   0.00000   0.00000   0.00000   0.00000   0.00000 ...
   0.00000   0.00000   0.00000   0.00000  -0.01513   0.00000   0.00000  -0.01160   0.00000   0.00000   0.00000  -0.00000 ...
   0.00000   0.00000   0.00000   0.00000   0.00000   0.00000   0.00000   0.00000  -0.08106   0.00000   0.00000   0.00000 ...
   0.00000   0.00000   0.00000   0.00000   0.00000   0.00000   0.00000   0.00000   0.00000  -0.08103   0.00000   0.00000 ...
   0.00002   0.00002   0.00000   0.00000   0.00000   0.00000   0.00000   0.00000   0.00000   0.00000  -0.08103   0.00000 ...
   0.00000   0.00000   0.00000   0.00000  -0.00000   0.00000   0.00000  -0.00000   0.00000   0.00000   0.00000  -0.08103 ...
   ...  only 12  components have been written...
 Atom # 20 - Spin component 1
   0.32273  -0.51899  -0.00053   0.00000  -0.00053   0.00169   0.00000   0.00169
  -0.51899   0.94688   0.00082   0.00000   0.00082  -0.00258   0.00000  -0.00258
  -0.00053   0.00082  -0.48387   0.00000  -0.00145   0.75139   0.00000   0.00398
   0.00000   0.00000   0.00000  -0.48290   0.00000   0.00000   0.74869   0.00000
  -0.00053   0.00082  -0.00145   0.00000  -0.48387   0.00398   0.00000   0.75139
   0.00169  -0.00258   0.75139   0.00000   0.00398   0.06558   0.00000  -0.01055
   0.00000   0.00000   0.00000   0.74869   0.00000   0.00000   0.07271   0.00000
   0.00169  -0.00258   0.00398   0.00000   0.75139  -0.01055   0.00000   0.06558
 Atom # 20 - Spin component 2
   0.32301  -0.51943  -0.00016   0.00000  -0.00016   0.00055   0.00000   0.00055
  -0.51943   0.94758   0.00025   0.00000   0.00025  -0.00083   0.00000  -0.00083
  -0.00016   0.00025  -0.48348   0.00000  -0.00139   0.75031   0.00000   0.00383
   0.00000   0.00000   0.00000  -0.48206   0.00000   0.00000   0.74644   0.00000
  -0.00016   0.00025  -0.00139   0.00000  -0.48348   0.00383   0.00000   0.75031
   0.00055  -0.00083   0.75031   0.00000   0.00383   0.06844   0.00000  -0.01016
   0.00000   0.00000   0.00000   0.74644   0.00000   0.00000   0.07868   0.00000
   0.00055  -0.00083   0.00383   0.00000   0.75031  -0.01016   0.00000   0.06844


 Augmentation waves occupancies Rhoij:
 Atom #  1 - Spin component 1
   1.01555  -0.01495   0.00000   0.00000   0.00000   0.00000   0.00000   0.00000   0.00001   0.00000  -0.00034   0.00000 ...
  -0.01495   0.01485   0.00000   0.00000   0.00000   0.00000   0.00000   0.00000  -0.00001   0.00000   0.00017   0.00000 ...
   0.00000   0.00000   1.03733   0.00000   0.00002  -0.11778   0.00000   0.00001   0.00000   0.00016   0.00000  -0.00008 ...
   0.00000   0.00000   0.00000   1.04106   0.00000   0.00000  -0.12648   0.00000   0.00000   0.00000   0.00000   0.00000 ...
   0.00000   0.00000   0.00002   0.00000   1.03733   0.00001   0.00000  -0.11778   0.00000   0.00008   0.00000  -0.00016 ...
   0.00000   0.00000  -0.11778   0.00000   0.00001   0.39656   0.00000  -0.00024   0.00000  -0.00042   0.00000   0.00021 ...
   0.00000   0.00000   0.00000  -0.12648   0.00000   0.00000   0.41078   0.00000   0.00000   0.00000   0.00000   0.00000 ...
   0.00000   0.00000   0.00001   0.00000  -0.11778  -0.00024   0.00000   0.39656   0.00000  -0.00021   0.00000   0.00042 ...
   0.00001  -0.00001   0.00000   0.00000   0.00000   0.00000   0.00000   0.00000   0.00137   0.00000   0.00001   0.00000 ...
   0.00000   0.00000   0.00016   0.00000   0.00008  -0.00042   0.00000  -0.00021   0.00000   0.00211   0.00000   0.00002 ...
  -0.00034   0.00017   0.00000   0.00000   0.00000   0.00000   0.00000   0.00000   0.00001   0.00000   0.00128   0.00000 ...
   0.00000   0.00000  -0.00008   0.00000  -0.00016   0.00021   0.00000   0.00042   0.00000   0.00002   0.00000   0.00211 ...
   ...  only 12  components have been written...
 Atom #  1 - Spin component 2
   1.01555  -0.01495   0.00000   0.00000   0.00000   0.00000   0.00000   0.00000  -0.00001   0.00000  -0.00034   0.00000 ...
  -0.01495   0.01485   0.00000   0.00000   0.00000   0.00000   0.00000   0.00000   0.00001   0.00000   0.00017   0.00000 ...
   0.00000   0.00000   1.03733   0.00000  -0.00002  -0.11778   0.00000  -0.00001   0.00000  -0.00016   0.00000  -0.00008 ...
   0.00000   0.00000   0.00000   1.04106   0.00000   0.00000  -0.12648   0.00000   0.00000   0.00000   0.00000   0.00000 ...
   0.00000   0.00000  -0.00002   0.00000   1.03733  -0.00001   0.00000  -0.11778   0.00000   0.00008   0.00000   0.00016 ...
   0.00000   0.00000  -0.11778   0.00000  -0.00001   0.39656   0.00000   0.00024   0.00000   0.00042   0.00000   0.00021 ...
   0.00000   0.00000   0.00000  -0.12648   0.00000   0.00000   0.41078   0.00000   0.00000   0.00000   0.00000   0.00000 ...
   0.00000   0.00000  -0.00001   0.00000  -0.11778   0.00024   0.00000   0.39656   0.00000  -0.00021   0.00000  -0.00042 ...
  -0.00001   0.00001   0.00000   0.00000   0.00000   0.00000   0.00000   0.00000   0.00137   0.00000  -0.00001   0.00000 ...
   0.00000   0.00000  -0.00016   0.00000   0.00008   0.00042   0.00000  -0.00021   0.00000   0.00211   0.00000  -0.00002 ...
  -0.00034   0.00017   0.00000   0.00000   0.00000   0.00000   0.00000   0.00000  -0.00001   0.00000   0.00128   0.00000 ...
   0.00000   0.00000  -0.00008   0.00000   0.00016   0.00021   0.00000  -0.00042   0.00000  -0.00002   0.00000   0.00211 ...
   ...  only 12  components have been written...
 Atom # 20 - Spin component 1
   0.99800   0.01599   0.00315   0.00000   0.00315  -0.00003   0.00000  -0.00003
   0.01599   0.00084  -0.00078   0.00000  -0.00078   0.00015   0.00000   0.00015
   0.00315  -0.00078   0.95222   0.00000  -0.01957   0.01935   0.00000   0.00394
   0.00000   0.00000   0.00000   0.97173   0.00000   0.00000   0.01544   0.00000
   0.00315  -0.00078  -0.01957   0.00000   0.95222   0.00394   0.00000   0.01935
  -0.00003   0.00015   0.01935   0.00000   0.00394   0.00060   0.00000   0.00023
   0.00000   0.00000   0.00000   0.01544   0.00000   0.00000   0.00036   0.00000
  -0.00003   0.00015   0.00394   0.00000   0.01935   0.00023   0.00000   0.00060
 Atom # 20 - Spin component 2
   0.99834   0.01614  -0.00358   0.00000  -0.00358   0.00089   0.00000   0.00089
   0.01614   0.00084   0.00345   0.00000   0.00345  -0.00003   0.00000  -0.00003
  -0.00358   0.00345   0.95124   0.00000  -0.02060   0.01955   0.00000   0.00405
   0.00000   0.00000   0.00000   0.95922   0.00000   0.00000   0.01628   0.00000
  -0.00358   0.00345  -0.02060   0.00000   0.95124   0.00405   0.00000   0.01955
   0.00089  -0.00003   0.01955   0.00000   0.00405   0.00059   0.00000   0.00022
   0.00000   0.00000   0.00000   0.01628   0.00000   0.00000   0.00035   0.00000
   0.00089  -0.00003   0.00405   0.00000   0.01955   0.00022   0.00000   0.00059

 "PAW+U" part of augmentation waves occupancies Rhoij:
 Atom #  5 - L=2 ONLY - Spin component 1
   0.09272   0.00000   0.01903   0.00000   0.00000   0.02498   0.00000   0.00347   0.00000   0.00000
   0.00000   0.53826   0.00000   0.50343   0.00000   0.00000   0.00350   0.00000  -0.00485   0.00000
   0.01903   0.00000   0.10657   0.00000   0.00000   0.00365   0.00000   0.02735   0.00000   0.00000
   0.00000   0.50343   0.00000   0.53826   0.00000   0.00000  -0.00485   0.00000   0.00350   0.00000
   0.00000   0.00000   0.00000   0.00000   1.04226   0.00000   0.00000   0.00000   0.00000  -0.00160
   0.02498   0.00000   0.00365   0.00000   0.00000   0.00753   0.00000   0.00074   0.00000   0.00000
   0.00000   0.00350   0.00000  -0.00485   0.00000   0.00000   0.00230   0.00000   0.00027   0.00000
   0.00347   0.00000   0.02735   0.00000   0.00000   0.00074   0.00000   0.00797   0.00000   0.00000
   0.00000  -0.00485   0.00000   0.00350   0.00000   0.00000   0.00027   0.00000   0.00230   0.00000
   0.00000   0.00000   0.00000   0.00000  -0.00160   0.00000   0.00000   0.00000   0.00000   0.00275
 Atom #  5 - L=2 ONLY - Spin component 2
   1.04966   0.00000  -0.00071   0.00000   0.00000  -0.05629   0.00000  -0.00577   0.00000   0.00000
   0.00000   1.04128   0.00000  -0.00088   0.00000   0.00000  -0.03875   0.00000   0.00881   0.00000
  -0.00071   0.00000   1.04899   0.00000   0.00000  -0.00581   0.00000  -0.06190   0.00000   0.00000
   0.00000  -0.00088   0.00000   1.04128   0.00000   0.00000   0.00881   0.00000  -0.03875   0.00000
   0.00000   0.00000   0.00000   0.00000   1.04190   0.00000   0.00000   0.00000   0.00000  -0.03087
  -0.05629   0.00000  -0.00581   0.00000   0.00000   0.01747   0.00000   0.00271   0.00000   0.00000
   0.00000  -0.03875   0.00000   0.00881   0.00000   0.00000   0.00483   0.00000  -0.00120   0.00000
  -0.00577   0.00000  -0.06190   0.00000   0.00000   0.00271   0.00000   0.01946   0.00000   0.00000
   0.00000   0.00881   0.00000  -0.03875   0.00000   0.00000  -0.00120   0.00000   0.00483   0.00000
   0.00000   0.00000   0.00000   0.00000  -0.03087   0.00000   0.00000   0.00000   0.00000   0.00396
 Atom #  6 - L=2 ONLY - Spin component 1
   1.04966   0.00000   0.00071   0.00000   0.00000  -0.05629   0.00000   0.00577   0.00000   0.00000
   0.00000   1.04128   0.00000   0.00088   0.00000   0.00000  -0.03875   0.00000  -0.00881   0.00000
   0.00071   0.00000   1.04899   0.00000   0.00000   0.00581   0.00000  -0.06190   0.00000   0.00000
   0.00000   0.00088   0.00000   1.04128   0.00000   0.00000  -0.00881   0.00000  -0.03875   0.00000
   0.00000   0.00000   0.00000   0.00000   1.04190   0.00000   0.00000   0.00000   0.00000  -0.03087
  -0.05629   0.00000   0.00581   0.00000   0.00000   0.01747   0.00000  -0.00271   0.00000   0.00000
   0.00000  -0.03875   0.00000  -0.00881   0.00000   0.00000   0.00483   0.00000   0.00120   0.00000
   0.00577   0.00000  -0.06190   0.00000   0.00000  -0.00271   0.00000   0.01946   0.00000   0.00000
   0.00000  -0.00881   0.00000  -0.03875   0.00000   0.00000   0.00120   0.00000   0.00483   0.00000
   0.00000   0.00000   0.00000   0.00000  -0.03087   0.00000   0.00000   0.00000   0.00000   0.00396
 Atom #  6 - L=2 ONLY - Spin component 2
   0.09272   0.00000  -0.01903   0.00000   0.00000   0.02498   0.00000  -0.00347   0.00000   0.00000
   0.00000   0.53826   0.00000  -0.50343   0.00000   0.00000   0.00350   0.00000   0.00485   0.00000
  -0.01903   0.00000   0.10657   0.00000   0.00000  -0.00365   0.00000   0.02735   0.00000   0.00000
   0.00000  -0.50343   0.00000   0.53826   0.00000   0.00000   0.00485   0.00000   0.00350   0.00000
   0.00000   0.00000   0.00000   0.00000   1.04226   0.00000   0.00000   0.00000   0.00000  -0.00160
   0.02498   0.00000  -0.00365   0.00000   0.00000   0.00753   0.00000  -0.00074   0.00000   0.00000
   0.00000   0.00350   0.00000   0.00485   0.00000   0.00000   0.00230   0.00000  -0.00027   0.00000
  -0.00347   0.00000   0.02735   0.00000   0.00000  -0.00074   0.00000   0.00797   0.00000   0.00000
   0.00000   0.00485   0.00000   0.00350   0.00000   0.00000  -0.00027   0.00000   0.00230   0.00000
   0.00000   0.00000   0.00000   0.00000  -0.00160   0.00000   0.00000   0.00000   0.00000   0.00275
 Atom #  7 - L=2 ONLY - Spin component 1
   1.04966   0.00000   0.00071   0.00000   0.00000  -0.05629   0.00000   0.00577   0.00000   0.00000
   0.00000   1.04128   0.00000   0.00088   0.00000   0.00000  -0.03875   0.00000  -0.00881   0.00000
   0.00071   0.00000   1.04899   0.00000   0.00000   0.00581   0.00000  -0.06190   0.00000   0.00000
   0.00000   0.00088   0.00000   1.04128   0.00000   0.00000  -0.00881   0.00000  -0.03875   0.00000
   0.00000   0.00000   0.00000   0.00000   1.04190   0.00000   0.00000   0.00000   0.00000  -0.03087
  -0.05629   0.00000   0.00581   0.00000   0.00000   0.01747   0.00000  -0.00271   0.00000   0.00000
   0.00000  -0.03875   0.00000  -0.00881   0.00000   0.00000   0.00483   0.00000   0.00120   0.00000
   0.00577   0.00000  -0.06190   0.00000   0.00000  -0.00271   0.00000   0.01946   0.00000   0.00000
   0.00000  -0.00881   0.00000  -0.03875   0.00000   0.00000   0.00120   0.00000   0.00483   0.00000
   0.00000   0.00000   0.00000   0.00000  -0.03087   0.00000   0.00000   0.00000   0.00000   0.00396
 Atom #  7 - L=2 ONLY - Spin component 2
   0.09272   0.00000  -0.01903   0.00000   0.00000   0.02498   0.00000  -0.00347   0.00000   0.00000
   0.00000   0.53826   0.00000  -0.50343   0.00000   0.00000   0.00350   0.00000   0.00485   0.00000
  -0.01903   0.00000   0.10657   0.00000   0.00000  -0.00365   0.00000   0.02735   0.00000   0.00000
   0.00000  -0.50343   0.00000   0.53826   0.00000   0.00000   0.00485   0.00000   0.00350   0.00000
   0.00000   0.00000   0.00000   0.00000   1.04226   0.00000   0.00000   0.00000   0.00000  -0.00160
   0.02498   0.00000  -0.00365   0.00000   0.00000   0.00753   0.00000  -0.00074   0.00000   0.00000
   0.00000   0.00350   0.00000   0.00485   0.00000   0.00000   0.00230   0.00000  -0.00027   0.00000
  -0.00347   0.00000   0.02735   0.00000   0.00000  -0.00074   0.00000   0.00797   0.00000   0.00000
   0.00000   0.00485   0.00000   0.00350   0.00000   0.00000  -0.00027   0.00000   0.00230   0.00000
   0.00000   0.00000   0.00000   0.00000  -0.00160   0.00000   0.00000   0.00000   0.00000   0.00275
 Atom #  8 - L=2 ONLY - Spin component 1
   0.09272   0.00000   0.01903   0.00000   0.00000   0.02498   0.00000   0.00347   0.00000   0.00000
   0.00000   0.53826   0.00000   0.50343   0.00000   0.00000   0.00350   0.00000  -0.00485   0.00000
   0.01903   0.00000   0.10657   0.00000   0.00000   0.00365   0.00000   0.02735   0.00000   0.00000
   0.00000   0.50343   0.00000   0.53826   0.00000   0.00000  -0.00485   0.00000   0.00350   0.00000
   0.00000   0.00000   0.00000   0.00000   1.04226   0.00000   0.00000   0.00000   0.00000  -0.00160
   0.02498   0.00000   0.00365   0.00000   0.00000   0.00753   0.00000   0.00074   0.00000   0.00000
   0.00000   0.00350   0.00000  -0.00485   0.00000   0.00000   0.00230   0.00000   0.00027   0.00000
   0.00347   0.00000   0.02735   0.00000   0.00000   0.00074   0.00000   0.00797   0.00000   0.00000
   0.00000  -0.00485   0.00000   0.00350   0.00000   0.00000   0.00027   0.00000   0.00230   0.00000
   0.00000   0.00000   0.00000   0.00000  -0.00160   0.00000   0.00000   0.00000   0.00000   0.00275
 Atom #  8 - L=2 ONLY - Spin component 2
   1.04966   0.00000  -0.00071   0.00000   0.00000  -0.05629   0.00000  -0.00577   0.00000   0.00000
   0.00000   1.04128   0.00000  -0.00088   0.00000   0.00000  -0.03875   0.00000   0.00881   0.00000
  -0.00071   0.00000   1.04899   0.00000   0.00000  -0.00581   0.00000  -0.06190   0.00000   0.00000
   0.00000  -0.00088   0.00000   1.04128   0.00000   0.00000   0.00881   0.00000  -0.03875   0.00000
   0.00000   0.00000   0.00000   0.00000   1.04190   0.00000   0.00000   0.00000   0.00000  -0.03087
  -0.05629   0.00000  -0.00581   0.00000   0.00000   0.01747   0.00000   0.00271   0.00000   0.00000
   0.00000  -0.03875   0.00000   0.00881   0.00000   0.00000   0.00483   0.00000  -0.00120   0.00000
  -0.00577   0.00000  -0.06190   0.00000   0.00000   0.00271   0.00000   0.01946   0.00000   0.00000
   0.00000   0.00881   0.00000  -0.03875   0.00000   0.00000  -0.00120   0.00000   0.00483   0.00000
   0.00000   0.00000   0.00000   0.00000  -0.03087   0.00000   0.00000   0.00000   0.00000   0.00396

 ---------- LDA+U DATA --------------------------------------------------- 

 ====== For Atom     5, occupations for correlated orbitals. lpawu =   2

 Atom   5. Occ. for lpawu and for spin  1 =   2.05702
 Atom   5. Occ. for lpawu and for spin  2 =   4.78684
 => On atom   5,  local Mag. for lpawu is        2.729817

 == Occupation matrix for correlated orbitals:

 Occupation matrix for spin  1
     0.07692    0.00000    0.01593    0.00000    0.00000
     0.00000    0.47991    0.00000    0.45109    0.00000
     0.01593    0.00000    0.08855    0.00000    0.00000
     0.00000    0.45109    0.00000    0.47991    0.00000
     0.00000    0.00000    0.00000    0.00000    0.93174


 Occupation matrix for spin  2
     0.97138    0.00000    0.00362    0.00000    0.00000
     0.00000    0.94812    0.00000   -0.00534    0.00000
     0.00362    0.00000    0.97449    0.00000    0.00000
     0.00000   -0.00534    0.00000    0.94812    0.00000
     0.00000    0.00000    0.00000    0.00000    0.94473


 ====== For Atom     6, occupations for correlated orbitals. lpawu =   2

 Atom   6. Occ. for lpawu and for spin  1 =   4.78684
 Atom   6. Occ. for lpawu and for spin  2 =   2.05702
 => On atom   6,  local Mag. for lpawu is       -2.729817

 == Occupation matrix for correlated orbitals:

 Occupation matrix for spin  1
     0.97138    0.00000   -0.00362    0.00000    0.00000
     0.00000    0.94812    0.00000    0.00534    0.00000
    -0.00362    0.00000    0.97449    0.00000    0.00000
     0.00000    0.00534    0.00000    0.94812    0.00000
     0.00000    0.00000    0.00000    0.00000    0.94473


 Occupation matrix for spin  2
     0.07692    0.00000   -0.01593    0.00000    0.00000
     0.00000    0.47991    0.00000   -0.45109    0.00000
    -0.01593    0.00000    0.08855    0.00000    0.00000
     0.00000   -0.45109    0.00000    0.47991    0.00000
     0.00000    0.00000    0.00000    0.00000    0.93174


 ====== For Atom     7, occupations for correlated orbitals. lpawu =   2

 Atom   7. Occ. for lpawu and for spin  1 =   4.78684
 Atom   7. Occ. for lpawu and for spin  2 =   2.05702
 => On atom   7,  local Mag. for lpawu is       -2.729817

 == Occupation matrix for correlated orbitals:

 Occupation matrix for spin  1
     0.97138    0.00000   -0.00362    0.00000    0.00000
     0.00000    0.94812    0.00000    0.00534    0.00000
    -0.00362    0.00000    0.97449    0.00000    0.00000
     0.00000    0.00534    0.00000    0.94812    0.00000
     0.00000    0.00000    0.00000    0.00000    0.94473


 Occupation matrix for spin  2
     0.07692    0.00000   -0.01593    0.00000    0.00000
     0.00000    0.47991    0.00000   -0.45109    0.00000
    -0.01593    0.00000    0.08855    0.00000    0.00000
     0.00000   -0.45109    0.00000    0.47991    0.00000
     0.00000    0.00000    0.00000    0.00000    0.93174


 ====== For Atom     8, occupations for correlated orbitals. lpawu =   2

 Atom   8. Occ. for lpawu and for spin  1 =   2.05702
 Atom   8. Occ. for lpawu and for spin  2 =   4.78684
 => On atom   8,  local Mag. for lpawu is        2.729817

 == Occupation matrix for correlated orbitals:

 Occupation matrix for spin  1
     0.07692    0.00000    0.01593    0.00000    0.00000
     0.00000    0.47991    0.00000    0.45109    0.00000
     0.01593    0.00000    0.08855    0.00000    0.00000
     0.00000    0.45109    0.00000    0.47991    0.00000
     0.00000    0.00000    0.00000    0.00000    0.93174


 Occupation matrix for spin  2
     0.97138    0.00000    0.00362    0.00000    0.00000
     0.00000    0.94812    0.00000   -0.00534    0.00000
     0.00362    0.00000    0.97449    0.00000    0.00000
     0.00000   -0.00534    0.00000    0.94812    0.00000
     0.00000    0.00000    0.00000    0.00000    0.94473



================================================================================

 ----iterations are completed or convergence reached----

 Mean square residual over all n,k,spin=   1.1951E-09; max=  5.5112E-07
 reduced coordinates (array xred) for   20 atoms
       0.000000000000     -0.000000000000     -0.000000000000
       0.500000000000      0.500000000000      0.000000000000
       0.000000000000     -0.000000000000      0.500000000000
       0.500000000000      0.500000000000      0.500000000000
       0.500000000000     -0.000000000000      0.250000000000
       0.000000000000      0.500000000000      0.250000000000
       0.500000000000     -0.000000000000      0.750000000000
       0.000000000000      0.500000000000      0.750000000000
       0.500000000000     -0.000000000000      0.000000000000
       0.000000000000      0.500000000000      0.000000000000
       0.500000000000     -0.000000000000      0.500000000000
       0.000000000000      0.500000000000      0.500000000000
       0.255820071950      0.244179928050      0.250000000000
       0.755820071950      0.255820071950      0.250000000000
       0.744179928050      0.755820071950      0.250000000000
       0.244179928050      0.744179928050      0.250000000000
       0.244179928050      0.255820071950      0.750000000000
       0.744179928050      0.244179928050      0.750000000000
       0.755820071950      0.744179928050      0.750000000000
       0.255820071950      0.755820071950      0.750000000000
 rms dE/dt=  1.6443E-04; max dE/dt=  3.1842E-04; dE/dt below (all hartree)
    1       0.000000000000      0.000000000000      0.000000000000
    2       0.000000000000      0.000000000000      0.000000000000
    3       0.000000000000      0.000000000000      0.000000000000
    4       0.000000000000      0.000000000000      0.000000000000
    5       0.000000000000      0.000000000000      0.000000000000
    6       0.000000000000      0.000000000000      0.000000000000
    7       0.000000000000      0.000000000000      0.000000000000
    8       0.000000000000      0.000000000000      0.000000000000
    9       0.000000000000      0.000000000000      0.000000000000
   10       0.000000000000      0.000000000000      0.000000000000
   11       0.000000000000      0.000000000000      0.000000000000
   12       0.000000000000      0.000000000000      0.000000000000
   13       0.000318419859     -0.000318419859      0.000000000000
   14       0.000318419859      0.000318419859      0.000000000000
   15      -0.000318419859      0.000318419859      0.000000000000
   16      -0.000318419859     -0.000318419859      0.000000000000
   17      -0.000318419859      0.000318419859      0.000000000000
   18      -0.000318419859     -0.000318419859      0.000000000000
   19       0.000318419859     -0.000318419859      0.000000000000
   20       0.000318419859      0.000318419859      0.000000000000

 cartesian coordinates (angstrom) at end:
    1      0.00000000000000    -0.00000000000000    -0.00000000000000
    2      2.88049640647553     2.88049640647553     0.00000000000000
    3      0.00000000000000    -0.00000000000000     4.01006140605591
    4      2.88049640647553     2.88049640647553     4.01006140605591
    5      2.88049640647553    -0.00000000000000     2.00503070302796
    6      0.00000000000000     2.88049640647553     2.00503070302796
    7      2.88049640647553    -0.00000000000000     6.01509210908387
    8      0.00000000000000     2.88049640647553     6.01509210908387
    9      2.88049640647553    -0.00000000000000     0.00000000000000
   10      0.00000000000000     2.88049640647553     0.00000000000000
   11      2.88049640647553    -0.00000000000000     4.01006140605591
   12      0.00000000000000     2.88049640647553     4.01006140605591
   13      1.47377759591257     1.40671881056296     2.00503070302796
   14      4.35427400238811     1.47377759591257     2.00503070302796
   15      4.28721521703849     4.35427400238811     2.00503070302796
   16      1.40671881056296     4.28721521703849     2.00503070302796
   17      1.40671881056296     1.47377759591257     6.01509210908387
   18      4.28721521703849     1.40671881056296     6.01509210908387
   19      4.35427400238811     4.28721521703849     6.01509210908387
   20      1.47377759591257     4.35427400238811     6.01509210908387

 cartesian forces (hartree/bohr) at end:
    1     -0.00000000000000    -0.00000000000000    -0.00000000000000
    2     -0.00000000000000    -0.00000000000000    -0.00000000000000
    3     -0.00000000000000    -0.00000000000000    -0.00000000000000
    4     -0.00000000000000    -0.00000000000000    -0.00000000000000
    5     -0.00000000000000    -0.00000000000000    -0.00000000000000
    6     -0.00000000000000    -0.00000000000000    -0.00000000000000
    7     -0.00000000000000    -0.00000000000000    -0.00000000000000
    8     -0.00000000000000    -0.00000000000000    -0.00000000000000
    9     -0.00000000000000    -0.00000000000000    -0.00000000000000
   10     -0.00000000000000    -0.00000000000000    -0.00000000000000
   11     -0.00000000000000    -0.00000000000000    -0.00000000000000
   12     -0.00000000000000    -0.00000000000000    -0.00000000000000
   13     -0.00002924852327     0.00002924852327    -0.00000000000000
   14     -0.00002924852327    -0.00002924852327    -0.00000000000000
   15      0.00002924852327    -0.00002924852327    -0.00000000000000
   16      0.00002924852327     0.00002924852327    -0.00000000000000
   17      0.00002924852327    -0.00002924852327    -0.00000000000000
   18      0.00002924852327     0.00002924852327    -0.00000000000000
   19     -0.00002924852327     0.00002924852327    -0.00000000000000
   20     -0.00002924852327    -0.00002924852327    -0.00000000000000
 frms,max,avg= 1.5103872E-05 2.9248523E-05   0.000E+00  0.000E+00  0.000E+00 h/b

 cartesian forces (eV/Angstrom) at end:
    1     -0.00000000000000    -0.00000000000000    -0.00000000000000
    2     -0.00000000000000    -0.00000000000000    -0.00000000000000
    3     -0.00000000000000    -0.00000000000000    -0.00000000000000
    4     -0.00000000000000    -0.00000000000000    -0.00000000000000
    5     -0.00000000000000    -0.00000000000000    -0.00000000000000
    6     -0.00000000000000    -0.00000000000000    -0.00000000000000
    7     -0.00000000000000    -0.00000000000000    -0.00000000000000
    8     -0.00000000000000    -0.00000000000000    -0.00000000000000
    9     -0.00000000000000    -0.00000000000000    -0.00000000000000
   10     -0.00000000000000    -0.00000000000000    -0.00000000000000
   11     -0.00000000000000    -0.00000000000000    -0.00000000000000
   12     -0.00000000000000    -0.00000000000000    -0.00000000000000
   13     -0.00150401941198     0.00150401941198    -0.00000000000000
   14     -0.00150401941198    -0.00150401941198    -0.00000000000000
   15      0.00150401941198    -0.00150401941198    -0.00000000000000
   16      0.00150401941198     0.00150401941198    -0.00000000000000
   17      0.00150401941198    -0.00150401941198    -0.00000000000000
   18      0.00150401941198     0.00150401941198    -0.00000000000000
   19     -0.00150401941198     0.00150401941198    -0.00000000000000
   20     -0.00150401941198    -0.00150401941198    -0.00000000000000
 frms,max,avg= 7.7667228E-04 1.5040194E-03   0.000E+00  0.000E+00  0.000E+00 e/A
 length scales= 10.886698670000 10.886698670000 15.155835667000 bohr
              =  5.760992812951  5.760992812951  8.020122812112 angstroms
 prteigrs : about to open file abinit-o_EIG
 Fermi (or HOMO) energy (hartree) =   0.17456   Average Vxc (hartree)=  -0.36527
 Eigenvalues (hartree) for nkpt=   6  k points:
 kpt#   1, nband=104, wtk=  0.12500, kpt=  0.1250  0.1250  0.2500 (reduced coord)
  -3.37858   -3.37858   -3.25930   -3.25930   -2.05562   -2.05562   -2.05444   -2.05444
  -1.99103   -1.99103   -1.92777   -1.92777   -1.92659   -1.92659   -1.89771   -1.89771
  -0.90471   -0.90409   -0.90356   -0.90321   -0.70610   -0.70008   -0.69981   -0.69667
  -0.69218   -0.68737   -0.68593   -0.68589   -0.68478   -0.68442   -0.68148   -0.68128
  -0.30597   -0.30575   -0.30454   -0.30343   -0.30320   -0.30109   -0.30105   -0.30053
  -0.29978   -0.29975   -0.29926   -0.29849   -0.12042   -0.11704   -0.10129   -0.09684
  -0.08563   -0.08257   -0.07025   -0.06758   -0.06469   -0.06274   -0.05810   -0.05694
  -0.05640   -0.05286   -0.05144   -0.05025   -0.04601   -0.03179   -0.02697   -0.01733
  -0.01437   -0.00968   -0.00150   -0.00133    0.00217    0.00594    0.00624    0.00651
   0.00749    0.00805    0.00982    0.00988    0.01541    0.02229    0.02413    0.02623
   0.02706    0.02747    0.05196    0.05228    0.05313    0.05581    0.06089    0.06460
   0.07385    0.07390    0.11811    0.11978    0.12110    0.12141    0.23386    0.23559
   0.25738    0.27087    0.28482    0.29661    0.30002    0.35443    0.40286    0.40584
      occupation numbers for kpt#   1
   2.00000    2.00000    2.00000    2.00000    2.00000    2.00000    2.00000    2.00000
   2.00000    2.00000    2.00000    2.00000    2.00000    2.00000    2.00000    2.00000
   2.00000    2.00000    2.00000    2.00000    2.00000    2.00000    2.00000    2.00000
   2.00000    2.00000    2.00000    2.00000    2.00000    2.00000    2.00000    2.00000
   2.00000    2.00000    2.00000    2.00000    2.00000    2.00000    2.00000    2.00000
   2.00000    2.00000    2.00000    2.00000    2.00000    2.00000    2.00000    2.00000
   2.00000    2.00000    2.00000    2.00000    2.00000    2.00000    2.00000    2.00000
   2.00000    2.00000    2.00000    2.00000    2.00000    2.00000    2.00000    2.00000
   2.00000    2.00000    2.00000    2.00000    2.00000    2.00000    2.00000    2.00000
   2.00000    2.00000    2.00000    2.00000    2.00000    2.00000    2.00000    2.00000
   2.00000    2.00000    2.00000    2.00000    2.00000    2.00000    2.00000    2.00000
   2.00000    2.00000    2.00000    2.00000    2.00000    2.00000    0.00000    0.00000
   0.00000    0.00000    0.00000    0.00000    0.00000    0.00000    0.00000    0.00000
 prteigrs : prtvol=0 or 1, do not print more k-points.


--------------------------------------------------------------------------------
 Components of total free energy (in Hartree) :

    Kinetic energy  =  1.94937646969731E+02
    Hartree energy  =  3.42786741928436E+02
    XC energy       = -6.79135355786472E+01
    Ewald energy    = -5.66988047659241E+02
    PspCore energy  =  1.88606499229520E+01
    Loc. psp. energy= -1.04082168141897E+03
    Spherical terms =  1.27829818908260E+02
    >>>>> Internal E= -9.91308406927478E+02

    -kT*entropy     = -6.66542982621980E-18
    >>>>>>>>> Etotal= -9.91308406927478E+02

 "Double-counting" decomposition of free energy:
    Band energy     = -1.05411301890367E+02
    Ewald energy    = -5.66988047659241E+02
    PspCore energy  =  1.88606499229520E+01
    Dble-C XC-energy= -3.22034800762870E+02
    Spherical terms = -1.57349065240714E+01
    >>>>> Internal E= -9.91308406913597E+02

    -kT*entropy     = -6.66542982621980E-18
    >>>> Etotal (DC)= -9.91308406913597E+02

  >Total energy in eV           = -2.69748735845487E+04
  >Total DC energy in eV        = -2.69748735841710E+04
--------------------------------------------------------------------------------

 Cartesian components of stress tensor (hartree/bohr^3)
  sigma(1 1)=  5.25985153E-07  sigma(3 2)=  0.00000000E+00
  sigma(2 2)=  5.25985153E-07  sigma(3 1)=  0.00000000E+00
  sigma(3 3)=  2.61060643E-06  sigma(2 1)=  0.00000000E+00

-Cartesian components of stress tensor (GPa)         [Pressure= -3.5919E-02 GPa]
- sigma(1 1)=  1.54750149E-02  sigma(3 2)=  0.00000000E+00
- sigma(2 2)=  1.54750149E-02  sigma(3 1)=  0.00000000E+00
- sigma(3 3)=  7.68066799E-02  sigma(2 1)=  0.00000000E+00

== END DATASET(S) ==============================================================
================================================================================
  
 -outvars: echo values of variables after computation  --------
            acell      1.0886698670E+01  1.0886698670E+01  1.5155835667E+01 Bohr
              amu      3.90983000E+01  5.89332000E+01  1.89984032E+01
           diemac      1.20000000E+01
         dmatpawu        0.06256    0.00000    0.01218    0.00000    0.00000
                         0.00000    0.48100    0.00000    0.45877    0.00000
                         0.01218    0.00000    0.07148    0.00000    0.00000
                         0.00000    0.45877    0.00000    0.48100    0.00000
                         0.00000    0.00000    0.00000    0.00000    0.94038
                         0.97852    0.00000    0.00305    0.00000    0.00000
                         0.00000    0.95493    0.00000   -0.00449    0.00000
                         0.00305    0.00000    0.98115    0.00000    0.00000
                         0.00000   -0.00449    0.00000    0.95493    0.00000
                         0.00000    0.00000    0.00000    0.00000    0.95168
                         0.97852    0.00000   -0.00305    0.00000    0.00000
                         0.00000    0.95493    0.00000    0.00449    0.00000
                        -0.00305    0.00000    0.98115    0.00000    0.00000
                         0.00000    0.00449    0.00000    0.95493    0.00000
                         0.00000    0.00000    0.00000    0.00000    0.95168
                         0.06256    0.00000   -0.01218    0.00000    0.00000
                         0.00000    0.48100    0.00000   -0.45877    0.00000
                        -0.01218    0.00000    0.07148    0.00000    0.00000
                         0.00000   -0.45877    0.00000    0.48100    0.00000
                         0.00000    0.00000    0.00000    0.00000    0.94038
             ecut      2.60000000E+01 Hartree
           ecutsm      5.00000000E-01 Hartree
           etotal     -9.9130840691E+02
            fcart     -3.3881317890E-22 -0.0000000000E+00 -0.0000000000E+00
                      -3.3881317890E-22 -0.0000000000E+00 -0.0000000000E+00
                      -3.3881317890E-22 -0.0000000000E+00 -0.0000000000E+00
                      -3.3881317890E-22 -0.0000000000E+00 -0.0000000000E+00
                      -3.3881317890E-22 -0.0000000000E+00 -0.0000000000E+00
                      -3.3881317890E-22 -0.0000000000E+00 -0.0000000000E+00
                      -3.3881317890E-22 -0.0000000000E+00 -0.0000000000E+00
                      -3.3881317890E-22 -0.0000000000E+00 -0.0000000000E+00
                      -3.3881317890E-22 -0.0000000000E+00 -0.0000000000E+00
                      -3.3881317890E-22 -0.0000000000E+00 -0.0000000000E+00
                      -3.3881317908E-22 -1.4492196930E-31 -0.0000000000E+00
                      -3.3881317905E-22 -1.4492196930E-31 -0.0000000000E+00
                      -2.9248523272E-05  2.9248523272E-05 -0.0000000000E+00
                      -2.9248523272E-05 -2.9248523272E-05 -0.0000000000E+00
                       2.9248523272E-05 -2.9248523272E-05 -0.0000000000E+00
                       2.9248523272E-05  2.9248523272E-05 -0.0000000000E+00
                       2.9248523272E-05 -2.9248523272E-05 -0.0000000000E+00
                       2.9248523272E-05  2.9248523272E-05 -0.0000000000E+00
                      -2.9248523272E-05  2.9248523272E-05 -0.0000000000E+00
                      -2.9248523272E-05 -2.9248523272E-05 -0.0000000000E+00
-          fftalg         312
              ixc     -116133
              kpt      1.25000000E-01  1.25000000E-01  2.50000000E-01
                       3.75000000E-01  1.25000000E-01  2.50000000E-01
                      -3.75000000E-01  1.25000000E-01  2.50000000E-01
                      -1.25000000E-01  1.25000000E-01  2.50000000E-01
                       3.75000000E-01  3.75000000E-01  2.50000000E-01
                      -3.75000000E-01  3.75000000E-01  2.50000000E-01
         kptrlatt        4    0    0      0    4    0      0    0    2
          kptrlen      3.03116713E+01
            lpawu          -1       2      -1
P           mkmem           1
            natom          20
            nband         104
            ngfft          50      50      72
          ngfftdg          72      72     100
             nkpt           6
           nspden           2
            nstep         100
             nsym          32
           ntypat           3
              occ      2.000000  2.000000  2.000000  2.000000  2.000000  2.000000
                       2.000000  2.000000  2.000000  2.000000  2.000000  2.000000
                       2.000000  2.000000  2.000000  2.000000  2.000000  2.000000
                       2.000000  2.000000  2.000000  2.000000  2.000000  2.000000
                       2.000000  2.000000  2.000000  2.000000  2.000000  2.000000
                       2.000000  2.000000  2.000000  2.000000  2.000000  2.000000
                       2.000000  2.000000  2.000000  2.000000  2.000000  2.000000
                       2.000000  2.000000  2.000000  2.000000  2.000000  2.000000
                       2.000000  2.000000  2.000000  2.000000  2.000000  2.000000
                       2.000000  2.000000  2.000000  2.000000  2.000000  2.000000
                       2.000000  2.000000  2.000000  2.000000  2.000000  2.000000
                       2.000000  2.000000  2.000000  2.000000  2.000000  2.000000
                       2.000000  2.000000  2.000000  2.000000  2.000000  2.000000
                       2.000000  2.000000  2.000000  2.000000  2.000000  2.000000
                       2.000000  2.000000  2.000000  2.000000  2.000000  2.000000
                       2.000000  2.000000  2.000000  2.000000  0.000000  0.000000
                       0.000000  0.000000  0.000000  0.000000  0.000000  0.000000
                       0.000000  0.000000
                       2.000000  2.000000  2.000000  2.000000  2.000000  2.000000
                       2.000000  2.000000  2.000000  2.000000  2.000000  2.000000
                       2.000000  2.000000  2.000000  2.000000  2.000000  2.000000
                       2.000000  2.000000  2.000000  2.000000  2.000000  2.000000
                       2.000000  2.000000  2.000000  2.000000  2.000000  2.000000
                       2.000000  2.000000  2.000000  2.000000  2.000000  2.000000
                       2.000000  2.000000  2.000000  2.000000  2.000000  2.000000
                       2.000000  2.000000  2.000000  2.000000  2.000000  2.000000
                       2.000000  2.000000  2.000000  2.000000  2.000000  2.000000
                       2.000000  2.000000  2.000000  2.000000  2.000000  2.000000
                       2.000000  2.000000  2.000000  2.000000  2.000000  2.000000
                       2.000000  2.000000  2.000000  2.000000  2.000000  2.000000
                       2.000000  2.000000  2.000000  2.000000  2.000000  2.000000
                       2.000000  2.000000  2.000000  2.000000  2.000000  2.000000
                       2.000000  2.000000  2.000000  2.000000  2.000000  2.000000
                       2.000000  2.000000  2.000000  2.000000  0.000000  0.000000
                       0.000000  0.000000  0.000000  0.000000  0.000000  0.000000
                       0.000000  0.000000
                       2.000000  2.000000  2.000000  2.000000  2.000000  2.000000
                       2.000000  2.000000  2.000000  2.000000  2.000000  2.000000
                       2.000000  2.000000  2.000000  2.000000  2.000000  2.000000
                       2.000000  2.000000  2.000000  2.000000  2.000000  2.000000
                       2.000000  2.000000  2.000000  2.000000  2.000000  2.000000
                       2.000000  2.000000  2.000000  2.000000  2.000000  2.000000
                       2.000000  2.000000  2.000000  2.000000  2.000000  2.000000
                       2.000000  2.000000  2.000000  2.000000  2.000000  2.000000
                       2.000000  2.000000  2.000000  2.000000  2.000000  2.000000
                       2.000000  2.000000  2.000000  2.000000  2.000000  2.000000
                       2.000000  2.000000  2.000000  2.000000  2.000000  2.000000
                       2.000000  2.000000  2.000000  2.000000  2.000000  2.000000
                       2.000000  2.000000  2.000000  2.000000  2.000000  2.000000
                       2.000000  2.000000  2.000000  2.000000  2.000000  2.000000
                       2.000000  2.000000  2.000000  2.000000  2.000000  2.000000
                       2.000000  2.000000  2.000000  2.000000  0.000000  0.000000
                       0.000000  0.000000  0.000000  0.000000  0.000000  0.000000
                       0.000000  0.000000
                       2.000000  2.000000  2.000000  2.000000  2.000000  2.000000
                       2.000000  2.000000  2.000000  2.000000  2.000000  2.000000
                       2.000000  2.000000  2.000000  2.000000  2.000000  2.000000
                       2.000000  2.000000  2.000000  2.000000  2.000000  2.000000
                       2.000000  2.000000  2.000000  2.000000  2.000000  2.000000
                       2.000000  2.000000  2.000000  2.000000  2.000000  2.000000
                       2.000000  2.000000  2.000000  2.000000  2.000000  2.000000
                       2.000000  2.000000  2.000000  2.000000  2.000000  2.000000
                       2.000000  2.000000  2.000000  2.000000  2.000000  2.000000
                       2.000000  2.000000  2.000000  2.000000  2.000000  2.000000
                       2.000000  2.000000  2.000000  2.000000  2.000000  2.000000
                       2.000000  2.000000  2.000000  2.000000  2.000000  2.000000
                       2.000000  2.000000  2.000000  2.000000  2.000000  2.000000
                       2.000000  2.000000  2.000000  2.000000  2.000000  2.000000
                       2.000000  2.000000  2.000000  2.000000  2.000000  2.000000
                       2.000000  2.000000  2.000000  2.000000  0.000000  0.000000
                       0.000000  0.000000  0.000000  0.000000  0.000000  0.000000
                       0.000000  0.000000
                       2.000000  2.000000  2.000000  2.000000  2.000000  2.000000
                       2.000000  2.000000  2.000000  2.000000  2.000000  2.000000
                       2.000000  2.000000  2.000000  2.000000  2.000000  2.000000
                       2.000000  2.000000  2.000000  2.000000  2.000000  2.000000
                       2.000000  2.000000  2.000000  2.000000  2.000000  2.000000
                       2.000000  2.000000  2.000000  2.000000  2.000000  2.000000
                       2.000000  2.000000  2.000000  2.000000  2.000000  2.000000
                       2.000000  2.000000  2.000000  2.000000  2.000000  2.000000
                       2.000000  2.000000  2.000000  2.000000  2.000000  2.000000
                       2.000000  2.000000  2.000000  2.000000  2.000000  2.000000
                       2.000000  2.000000  2.000000  2.000000  2.000000  2.000000
                       2.000000  2.000000  2.000000  2.000000  2.000000  2.000000
                       2.000000  2.000000  2.000000  2.000000  2.000000  2.000000
                       2.000000  2.000000  2.000000  2.000000  2.000000  2.000000
                       2.000000  2.000000  2.000000  2.000000  2.000000  2.000000
                       2.000000  2.000000  2.000000  2.000000  0.000000  0.000000
                       0.000000  0.000000  0.000000  0.000000  0.000000  0.000000
                       0.000000  0.000000
                       2.000000  2.000000  2.000000  2.000000  2.000000  2.000000
                       2.000000  2.000000  2.000000  2.000000  2.000000  2.000000
                       2.000000  2.000000  2.000000  2.000000  2.000000  2.000000
                       2.000000  2.000000  2.000000  2.000000  2.000000  2.000000
                       2.000000  2.000000  2.000000  2.000000  2.000000  2.000000
                       2.000000  2.000000  2.000000  2.000000  2.000000  2.000000
                       2.000000  2.000000  2.000000  2.000000  2.000000  2.000000
                       2.000000  2.000000  2.000000  2.000000  2.000000  2.000000
                       2.000000  2.000000  2.000000  2.000000  2.000000  2.000000
                       2.000000  2.000000  2.000000  2.000000  2.000000  2.000000
                       2.000000  2.000000  2.000000  2.000000  2.000000  2.000000
                       2.000000  2.000000  2.000000  2.000000  2.000000  2.000000
                       2.000000  2.000000  2.000000  2.000000  2.000000  2.000000
                       2.000000  2.000000  2.000000  2.000000  2.000000  2.000000
                       2.000000  2.000000  2.000000  2.000000  2.000000  2.000000
                       2.000000  2.000000  2.000000  2.000000  0.000000  0.000000
                       0.000000  0.000000  0.000000  0.000000  0.000000  0.000000
                       0.000000  0.000000
           occopt           7
        pawecutdg      5.20000000E+01 Hartree
           shiftk      5.00000000E-01  5.00000000E-01  5.00000000E-01
           spinat      0.0000000000E+00  0.0000000000E+00  0.0000000000E+00
                       0.0000000000E+00  0.0000000000E+00  0.0000000000E+00
                       0.0000000000E+00  0.0000000000E+00  0.0000000000E+00
                       0.0000000000E+00  0.0000000000E+00  0.0000000000E+00
                       0.0000000000E+00  0.0000000000E+00 -4.0000000000E+00
                       0.0000000000E+00  0.0000000000E+00  4.0000000000E+00
                       0.0000000000E+00  0.0000000000E+00  4.0000000000E+00
                       0.0000000000E+00  0.0000000000E+00 -4.0000000000E+00
                       0.0000000000E+00  0.0000000000E+00  0.0000000000E+00
                       0.0000000000E+00  0.0000000000E+00  0.0000000000E+00
                       0.0000000000E+00  0.0000000000E+00  0.0000000000E+00
                       0.0000000000E+00  0.0000000000E+00  0.0000000000E+00
                       0.0000000000E+00  0.0000000000E+00  0.0000000000E+00
                       0.0000000000E+00  0.0000000000E+00  0.0000000000E+00
                       0.0000000000E+00  0.0000000000E+00  0.0000000000E+00
                       0.0000000000E+00  0.0000000000E+00  0.0000000000E+00
                       0.0000000000E+00  0.0000000000E+00  0.0000000000E+00
                       0.0000000000E+00  0.0000000000E+00  0.0000000000E+00
                       0.0000000000E+00  0.0000000000E+00  0.0000000000E+00
                       0.0000000000E+00  0.0000000000E+00  0.0000000000E+00
           strten      5.2598515342E-07  5.2598515342E-07  2.6106064284E-06
                       0.0000000000E+00  0.0000000000E+00  0.0000000000E+00
           symafm        1    1    1    1   -1   -1   -1   -1    1    1
                         1    1   -1   -1   -1   -1    1    1    1    1
                        -1   -1   -1   -1    1    1    1    1   -1   -1
                        -1   -1
           symrel      1  0  0   0  1  0   0  0  1       1  0  0   0  1  0   0  0  1
                      -1  0  0   0 -1  0   0  0 -1      -1  0  0   0 -1  0   0  0 -1
                      -1  0  0   0  1  0   0  0 -1      -1  0  0   0  1  0   0  0 -1
                       1  0  0   0 -1  0   0  0  1       1  0  0   0 -1  0   0  0  1
                      -1  0  0   0 -1  0   0  0  1      -1  0  0   0 -1  0   0  0  1
                       1  0  0   0  1  0   0  0 -1       1  0  0   0  1  0   0  0 -1
                       1  0  0   0 -1  0   0  0 -1       1  0  0   0 -1  0   0  0 -1
                      -1  0  0   0  1  0   0  0  1      -1  0  0   0  1  0   0  0  1
                       0  1  0   1  0  0   0  0  1       0  1  0   1  0  0   0  0  1
                       0 -1  0  -1  0  0   0  0 -1       0 -1  0  -1  0  0   0  0 -1
                       0 -1  0   1  0  0   0  0 -1       0 -1  0   1  0  0   0  0 -1
                       0  1  0  -1  0  0   0  0  1       0  1  0  -1  0  0   0  0  1
                       0 -1  0  -1  0  0   0  0  1       0 -1  0  -1  0  0   0  0  1
                       0  1  0   1  0  0   0  0 -1       0  1  0   1  0  0   0  0 -1
                       0  1  0  -1  0  0   0  0 -1       0  1  0  -1  0  0   0  0 -1
                       0 -1  0   1  0  0   0  0  1       0 -1  0   1  0  0   0  0  1
            tnons      0.0000000  0.0000000  0.0000000     0.5000000  0.5000000  0.5000000
                      -0.0000000 -0.0000000  0.5000000     0.5000000  0.5000000  0.0000000
                       0.5000000  0.5000000  0.5000000    -0.0000000 -0.0000000  0.0000000
                       0.5000000  0.5000000  0.0000000     0.0000000 -0.0000000  0.5000000
                      -0.0000000 -0.0000000  0.0000000     0.5000000  0.5000000  0.5000000
                       0.0000000  0.0000000  0.5000000     0.5000000  0.5000000  0.0000000
                       0.5000000  0.5000000  0.5000000     0.0000000 -0.0000000  0.0000000
                       0.5000000  0.5000000  0.0000000    -0.0000000 -0.0000000  0.5000000
                       0.5000000  0.5000000  0.0000000     0.0000000  0.0000000  0.5000000
                       0.5000000  0.5000000  0.5000000     0.0000000 -0.0000000  0.0000000
                       0.0000000 -0.0000000  0.5000000     0.5000000  0.5000000  0.0000000
                       0.0000000  0.0000000  0.0000000     0.5000000  0.5000000  0.5000000
                       0.5000000  0.5000000  0.0000000     0.0000000 -0.0000000  0.5000000
                       0.5000000  0.5000000  0.5000000     0.0000000  0.0000000  0.0000000
                       0.0000000  0.0000000  0.5000000     0.5000000  0.5000000  0.0000000
                       0.0000000 -0.0000000  0.0000000     0.5000000  0.5000000  0.5000000
           tolvrs      1.00000000E-14
           tsmear      1.00000000E-03 Hartree
            typat      1  1  1  1  2  2  2  2  3  3  3  3  3  3  3  3  3  3  3  3
            upawu      0.00000000E+00  1.46997302E-01  0.00000000E+00 Hartree
        usedmatpu          50
          usepawu           1
           useylm           1
              wtk        0.12500    0.25000    0.25000    0.12500    0.12500    0.12500
           xangst      2.0339865700E-20 -1.9352939087E-20 -2.5194539416E-32
                       2.8804964065E+00  2.8804964065E+00  7.3973205348E-32
                       2.0339865700E-20 -1.9352939087E-20  4.0100614061E+00
                       2.8804964065E+00  2.8804964065E+00  4.0100614061E+00
                       2.8804964065E+00 -1.9352939087E-20  2.0050307030E+00
                       2.0339865700E-20  2.8804964065E+00  2.0050307030E+00
                       2.8804964065E+00 -1.9352939087E-20  6.0150921091E+00
                       2.0339865700E-20  2.8804964065E+00  6.0150921091E+00
                       2.8804964065E+00 -1.9352939087E-20  2.4389332966E-32
                       2.0339865700E-20  2.8804964065E+00  2.4389332966E-32
                       2.8804964065E+00 -1.9352939087E-20  4.0100614061E+00
                       2.0339865700E-20  2.8804964065E+00  4.0100614061E+00
                       1.4737775959E+00  1.4067188106E+00  2.0050307030E+00
                       4.3542740024E+00  1.4737775959E+00  2.0050307030E+00
                       4.2872152170E+00  4.3542740024E+00  2.0050307030E+00
                       1.4067188106E+00  4.2872152170E+00  2.0050307030E+00
                       1.4067188106E+00  1.4737775959E+00  6.0150921091E+00
                       4.2872152170E+00  1.4067188106E+00  6.0150921091E+00
                       4.3542740024E+00  4.2872152170E+00  6.0150921091E+00
                       1.4737775959E+00  4.3542740024E+00  6.0150921091E+00
            xcart      3.8436775753E-20 -3.6571754740E-20 -4.7610779540E-32
                       5.4433493350E+00  5.4433493350E+00  1.3978909928E-31
                       3.8436775753E-20 -3.6571754740E-20  7.5779178335E+00
                       5.4433493350E+00  5.4433493350E+00  7.5779178335E+00
                       5.4433493350E+00 -3.6571754740E-20  3.7889589167E+00
                       3.8436775753E-20  5.4433493350E+00  3.7889589167E+00
                       5.4433493350E+00 -3.6571754741E-20  1.1366876750E+01
                       3.8436775753E-20  5.4433493350E+00  1.1366876750E+01
                       5.4433493350E+00 -3.6571754740E-20  4.6089159869E-32
                       3.8436775753E-20  5.4433493350E+00  4.6089159869E-32
                       5.4433493350E+00 -3.6571754740E-20  7.5779178335E+00
                       3.8436775753E-20  5.4433493350E+00  7.5779178335E+00
                       2.7850360371E+00  2.6583132979E+00  3.7889589167E+00
                       8.2283853721E+00  2.7850360371E+00  3.7889589167E+00
                       8.1016626329E+00  8.2283853721E+00  3.7889589167E+00
                       2.6583132979E+00  8.1016626329E+00  3.7889589167E+00
                       2.6583132979E+00  2.7850360371E+00  1.1366876750E+01
                       8.1016626329E+00  2.6583132979E+00  1.1366876750E+01
                       8.2283853721E+00  8.1016626329E+00  1.1366876750E+01
                       2.7850360371E+00  8.2283853721E+00  1.1366876750E+01
             xred      3.5306181349E-21 -3.3593062368E-21 -3.1414156623E-33
                       5.0000000000E-01  5.0000000000E-01  9.2234504484E-33
                       3.5306181349E-21 -3.3593062368E-21  5.0000000000E-01
                       5.0000000000E-01  5.0000000000E-01  5.0000000000E-01
                       5.0000000000E-01 -3.3593062368E-21  2.5000000000E-01
                       3.5306181349E-21  5.0000000000E-01  2.5000000000E-01
                       5.0000000000E-01 -3.3593062369E-21  7.5000000000E-01
                       3.5306181349E-21  5.0000000000E-01  7.5000000000E-01
                       5.0000000000E-01 -3.3593062368E-21  3.0410173930E-33
                       3.5306181349E-21  5.0000000000E-01  3.0410173930E-33
                       5.0000000000E-01 -3.3593062368E-21  5.0000000000E-01
                       3.5306181349E-21  5.0000000000E-01  5.0000000000E-01
                       2.5582007195E-01  2.4417992805E-01  2.5000000000E-01
                       7.5582007195E-01  2.5582007195E-01  2.5000000000E-01
                       7.4417992805E-01  7.5582007195E-01  2.5000000000E-01
                       2.4417992805E-01  7.4417992805E-01  2.5000000000E-01
                       2.4417992805E-01  2.5582007195E-01  7.5000000000E-01
                       7.4417992805E-01  2.4417992805E-01  7.5000000000E-01
                       7.5582007195E-01  7.4417992805E-01  7.5000000000E-01
                       2.5582007195E-01  7.5582007195E-01  7.5000000000E-01
            znucl       19.00000   27.00000    9.00000

================================================================================


- Timing analysis has been suppressed with timopt=0



================================================================================

 Suggested references for the acknowledgment of ABINIT usage.

 The users of ABINIT have little formal obligations with respect to the ABINIT group
 (those specified in the GNU General Public License, http://www.gnu.org/copyleft/gpl.txt).
 However, it is common practice in the scientific literature,
 to acknowledge the efforts of people that have made the research possible.
 In this spirit, please find below suggested citations of work written by ABINIT developers,
 corresponding to implementations inside of ABINIT that you have used in the present run.
 Note also that it will be of great value to readers of publications presenting these results,
 to read papers enabling them to understand the theoretical formalism and details
 of the ABINIT implementation.
 For information on why they are suggested, see also http://www.abinit.org/about/?text=acknowledgments.
-
- [1] Gamma and beta cerium: LDA+U calculations of ground-state parameters.
- B. Amadon, F. Jollet and M. Torrent, Phys. Rev. B 77, 155104 (2008).
- Comment : LDA+U calculations, usepawu/=0. Strong suggestion to cite this paper.
-
- [2] Implementation of the Projector Augmented-Wave Method in the ABINIT code.
- M. Torrent, F. Jollet, F. Bottin, G. Zerah, and X. Gonze Comput. Mat. Science 42, 337, (2008).
- Comment : PAW calculations. Strong suggestion to cite this paper.
-
- [3] Libxc: A library of exchange and correlation functionals for density functional theory.
- M.A.L. Marques, M.J.T. Oliveira, T. Burnus, Computer Physics Communications 183, 2227 (2012).
- Comment : to be cited when LibXC is used (negative value of ixc)
- Strong suggestion to cite this paper.
-
- [4] Recent developments in the ABINIT software package.
- Computer Phys. Comm. 205, 106 (2016).
- X.Gonze, F.Jollet, F.Abreu Araujo, D.Adams, B.Amadon, T.Applencourt,
- C.Audouze, J.-M.Beuken, J.Bieder, A.Bokhanchuk, E.Bousquet, F.Bruneval
- D.Caliste, M.Cote, F.Dahm, F.Da Pieve, M.Delaveau, M.Di Gennaro,
- B.Dorado, C.Espejo, G.Geneste, L.Genovese, A.Gerossier, M.Giantomassi,
- Y.Gillet, D.R.Hamann, L.He, G.Jomard, J.Laflamme Janssen, S.Le Roux,
- A.Levitt, A.Lherbier, F.Liu, I.Lukacevic, A.Martin, C.Martins,
- M.J.T.Oliveira, S.Ponce, Y.Pouillon, T.Rangel, G.-M.Rignanese,
- A.H.Romero, B.Rousseau, O.Rubel, A.A.Shukri, M.Stankovski, M.Torrent,
- M.J.Van Setten, B.Van Troeye, M.J.Verstraete, D.Waroquier, J.Wiktor,
- B.Xue, A.Zhou, J.W.Zwanziger.
- Comment : the fourth generic paper describing the ABINIT project.
- Note that a version of this paper, that is not formatted for Computer Phys. Comm. 
- is available at http://www.abinit.org/about/ABINIT16.pdf .
- The licence allows the authors to put it on the Web.
-
- [5] ABINIT : First-principles approach of materials and nanosystem properties.
- Computer Phys. Comm. 180, 2582-2615 (2009).
- X. Gonze, B. Amadon, P.-M. Anglade, J.-M. Beuken, F. Bottin, P. Boulanger, F. Bruneval,
- D. Caliste, R. Caracas, M. Cote, T. Deutsch, L. Genovese, Ph. Ghosez, M. Giantomassi
- S. Goedecker, D.R. Hamann, P. Hermet, F. Jollet, G. Jomard, S. Leroux, M. Mancini, S. Mazevet,
- M.J.T. Oliveira, G. Onida, Y. Pouillon, T. Rangel, G.-M. Rignanese, D. Sangalli, R. Shaltaf,
- M. Torrent, M.J. Verstraete, G. Zerah, J.W. Zwanziger
- Comment : the third generic paper describing the ABINIT project.
- Note that a version of this paper, that is not formatted for Computer Phys. Comm. 
- is available at http://www.abinit.org/about/ABINIT_CPC_v10.pdf .
- The licence allows the authors to put it on the Web.
-
- [6] A brief introduction to the ABINIT software package.
- Z. Kristallogr. 220, 558-562 (2005).
- X. Gonze, G.-M. Rignanese, M. Verstraete, J.-M. Beuken, Y. Pouillon, R. Caracas, F. Jollet,
- M. Torrent, G. Zerah, M. Mikami, Ph. Ghosez, M. Veithen, J.-Y. Raty, V. Olevano, F. Bruneval,
- L. Reining, R. Godby, G. Onida, D.R. Hamann, and D.C. Allan.
- Comment : the second generic paper describing the ABINIT project. Note that this paper
- should be cited especially if you are using the GW part of ABINIT, as several authors
- of this part are not in the list of authors of the first or third paper.
- The .pdf of the latter paper is available at http://www.abinit.org/about/zfk_0505-06_558-562.pdf.
- Note that it should not redistributed (Copyright by Oldenburg Wissenshaftverlag,
- the licence allows the authors to put it on the Web).
-
- Proc.   0 individual time (sec): cpu=       1516.3  wall=       1516.8

================================================================================

 Calculation completed.
.Delivered   0 WARNINGs and   0 COMMENTs to log file.
+Overall time at end (sec) : cpu=      24270.4  wall=      24269.1
